/*--------------------------------*- C++ -*----------------------------------*\
  =========                 |
  \\      /  F ield         | OpenFOAM: The Open Source CFD Toolbox
   \\    /   O peration     | Website:  https://openfoam.org
    \\  /    A nd           | Version:  8
     \\/     M anipulation  |
\*---------------------------------------------------------------------------*/
FoamFile
{
    version     2.0;
    format      ascii;
    class       SurfacesRepository;
    location    "10/surfaceRepository";
    object      swakSurfaces;
}
// * * * * * * * * * * * * * * * * * * * * * * * * * * * * * * * * * * * * * //


1
(
x0.7 plane: x0.7 :  base:(0.7 0 0)  normal:(1 0 0)  triangulate:1  faces:40  points:42
)

// ************************************************************************* //
