#         Time          sum
            0            0
       0.0005      135.943
        0.001      206.976
       0.0015      270.019
        0.002      327.882
       0.0025      381.943
        0.003      432.801
       0.0035      480.885
        0.004      526.609
       0.0045      570.281
        0.005      612.122
       0.0055       652.32
        0.006      691.036
       0.0065      728.405
        0.007      764.542
       0.0075      799.535
        0.008      833.452
       0.0085      866.383
        0.009      898.403
       0.0095      929.575
         0.01      959.955
       0.0105      989.591
        0.011      1018.53
       0.0115       1046.8
        0.012      1074.46
       0.0125      1101.52
        0.013      1128.01
       0.0135      1153.98
        0.014      1179.43
       0.0145       1204.4
        0.015      1228.92
       0.0155         1253
        0.016      1276.66
       0.0165      1299.92
        0.017      1322.81
       0.0175      1345.32
        0.018      1367.48
       0.0185       1389.3
        0.019      1410.81
       0.0195      1432.01
         0.02      1452.91
       0.0205      1473.54
        0.021       1493.9
       0.0215         1514
        0.022      1533.85
       0.0225      1553.46
        0.023      1572.85
       0.0235      1592.03
        0.024      1610.99
       0.0245      1629.75
        0.025      1648.32
       0.0255      1666.71
        0.026      1684.91
       0.0265      1702.94
        0.027      1720.81
       0.0275      1738.52
        0.028      1756.08
       0.0285       1773.5
        0.029      1790.77
       0.0295      1807.91
         0.03      1824.92
       0.0305       1841.8
        0.031      1858.56
       0.0315       1875.2
        0.032      1891.73
       0.0325      1908.15
        0.033      1924.46
       0.0335      1940.67
        0.034      1956.78
       0.0345      1972.79
        0.035      1988.71
       0.0355      2004.54
        0.036      2020.28
       0.0365      2035.94
        0.037      2051.51
       0.0375         2067
        0.038      2082.42
       0.0385      2097.76
        0.039      2113.02
       0.0395      2128.21
         0.04      2143.32
       0.0405      2158.37
        0.041      2173.34
       0.0415      2188.25
        0.042       2203.1
       0.0425      2217.87
        0.043      2232.58
       0.0435      2247.23
        0.044      2261.81
       0.0445      2276.33
        0.045      2290.79
       0.0455      2305.19
        0.046      2319.53
       0.0465      2333.81
        0.047      2348.02
       0.0475      2362.18
        0.048      2376.28
       0.0485      2390.32
        0.049      2404.31
       0.0495      2418.23
         0.05       2432.1
       0.0505      2445.91
        0.051      2459.67
       0.0515      2473.37
        0.052      2487.01
       0.0525       2500.6
        0.053      2514.13
       0.0535       2527.6
        0.054      2541.02
       0.0545      2554.38
        0.055      2567.69
       0.0555      2580.95
        0.056      2594.14
       0.0565      2607.29
        0.057      2620.37
       0.0575       2633.4
        0.058      2646.38
       0.0585       2659.3
        0.059      2672.17
       0.0595      2684.98
         0.06      2697.73
       0.0605      2710.43
        0.061      2723.07
       0.0615      2735.66
        0.062      2748.19
       0.0625      2760.66
        0.063      2773.08
       0.0635      2785.44
        0.064      2797.75
       0.0645         2810
        0.065       2822.2
       0.0655      2834.33
        0.066      2846.42
       0.0665      2858.44
        0.067      2870.41
       0.0675      2882.32
        0.068      2894.18
       0.0685      2905.98
        0.069      2917.72
       0.0695      2929.41
         0.07      2941.04
       0.0705      2952.61
        0.071      2964.13
       0.0715      2975.59
        0.072      2986.99
       0.0725      2998.34
        0.073      3009.63
       0.0735      3020.86
        0.074      3032.04
       0.0745      3043.16
        0.075      3054.22
       0.0755      3065.23
        0.076      3076.18
       0.0765      3087.08
        0.077      3097.92
       0.0775       3108.7
        0.078      3119.42
       0.0785      3130.09
        0.079      3140.71
       0.0795      3151.26
         0.08      3161.77
       0.0805      3172.21
        0.081       3182.6
       0.0815      3192.94
        0.082      3203.21
       0.0825      3213.44
        0.083       3223.6
       0.0835      3233.71
        0.084      3243.77
       0.0845      3253.77
        0.085      3263.72
       0.0855      3273.61
        0.086      3283.44
       0.0865      3293.23
        0.087      3302.95
       0.0875      3312.62
        0.088      3322.24
       0.0885      3331.81
        0.089      3341.31
       0.0895      3350.77
         0.09      3360.17
       0.0905      3369.52
        0.091      3378.82
       0.0915      3388.06
        0.092      3397.25
       0.0925      3406.39
        0.093      3415.47
       0.0935       3424.5
        0.094      3433.48
       0.0945      3442.41
        0.095      3451.29
       0.0955      3460.11
        0.096      3468.88
       0.0965       3477.6
        0.097      3486.27
       0.0975      3494.89
        0.098      3503.46
       0.0985      3511.98
        0.099      3520.44
       0.0995      3528.86
          0.1      3537.23
       0.1005      3545.55
        0.101      3553.81
       0.1015      3562.03
        0.102       3570.2
       0.1025      3578.32
        0.103       3586.4
       0.1035      3594.42
        0.104       3602.4
       0.1045      3610.33
        0.105      3618.21
       0.1055      3626.05
        0.106      3633.84
       0.1065      3641.58
        0.107      3649.27
       0.1075      3656.93
        0.108      3664.53
       0.1085      3672.09
        0.109       3679.6
       0.1095      3687.07
         0.11      3694.49
       0.1105      3701.87
        0.111       3709.2
       0.1115      3716.49
        0.112      3723.74
       0.1125      3730.94
        0.113       3738.1
       0.1135      3745.21
        0.114      3752.28
       0.1145      3759.31
        0.115       3766.3
       0.1155      3773.24
        0.116      3780.14
       0.1165         3787
        0.117      3793.82
       0.1175       3800.6
        0.118      3807.33
       0.1185      3814.02
        0.119      3820.68
       0.1195      3827.29
         0.12      3833.86
       0.1205      3840.39
        0.121      3846.88
       0.1215      3853.33
        0.122      3859.75
       0.1225      3866.12
        0.123      3872.45
       0.1235      3878.75
        0.124         3885
       0.1245      3891.22
        0.125       3897.4
       0.1255      3903.54
        0.126      3909.65
       0.1265      3915.71
        0.127      3921.74
       0.1275      3927.73
        0.128      3933.69
       0.1285      3939.61
        0.129      3945.49
       0.1295      3951.33
         0.13      3957.14
       0.1305      3962.91
        0.131      3968.65
       0.1315      3974.35
        0.132      3980.02
       0.1325      3985.65
        0.133      3991.25
       0.1335      3996.81
        0.134      4002.34
       0.1345      4007.84
        0.135       4013.3
       0.1355      4018.72
        0.136      4024.12
       0.1365      4029.47
        0.137       4034.8
       0.1375      4040.09
        0.138      4045.35
       0.1385      4050.58
        0.139      4055.78
       0.1395      4060.94
         0.14      4066.07
       0.1405      4071.17
        0.141      4076.24
       0.1415      4081.27
        0.142      4086.28
       0.1425      4091.25
        0.143      4096.19
       0.1435       4101.1
        0.144      4105.99
       0.1445      4110.84
        0.145      4115.66
       0.1455      4120.45
        0.146      4125.21
       0.1465      4129.94
        0.147      4134.64
       0.1475      4139.32
        0.148      4143.96
       0.1485      4148.57
        0.149      4153.16
       0.1495      4157.72
         0.15      4162.25
       0.1505      4166.75
        0.151      4171.22
       0.1515      4175.67
        0.152      4180.08
       0.1525      4184.47
        0.153      4188.84
       0.1535      4193.17
        0.154      4197.48
       0.1545      4201.76
        0.155      4206.01
       0.1555      4210.24
        0.156      4214.44
       0.1565      4218.62
        0.157      4222.77
       0.1575      4226.89
        0.158      4230.99
       0.1585      4235.06
        0.159      4239.11
       0.1595      4243.13
         0.16      4247.13
       0.1605       4251.1
        0.161      4255.05
       0.1615      4258.97
        0.162      4262.87
       0.1625      4266.74
        0.163      4270.59
       0.1635      4274.42
        0.164      4278.22
       0.1645         4282
        0.165      4285.75
       0.1655      4289.48
        0.166      4293.19
       0.1665      4296.88
        0.167      4300.54
       0.1675      4304.18
        0.168      4307.79
       0.1685      4311.39
        0.169      4314.96
       0.1695      4318.51
         0.17      4322.03
       0.1705      4325.54
        0.171      4329.02
       0.1715      4332.48
        0.172      4335.92
       0.1725      4339.34
        0.173      4342.74
       0.1735      4346.11
        0.174      4349.47
       0.1745       4352.8
        0.175      4356.11
       0.1755      4359.41
        0.176      4362.68
       0.1765      4365.93
        0.177      4369.16
       0.1775      4372.37
        0.178      4375.56
       0.1785      4378.73
        0.179      4381.88
       0.1795      4385.01
         0.18      4388.12
       0.1805      4391.21
        0.181      4394.29
       0.1815      4397.34
        0.182      4400.37
       0.1825      4403.39
        0.183      4406.39
       0.1835      4409.36
        0.184      4412.32
       0.1845      4415.26
        0.185      4418.19
       0.1855      4421.09
        0.186      4423.98
       0.1865      4426.84
        0.187      4429.69
       0.1875      4432.52
        0.188      4435.34
       0.1885      4438.14
        0.189      4440.91
       0.1895      4443.68
         0.19      4446.42
       0.1905      4449.15
        0.191      4451.86
       0.1915      4454.55
        0.192      4457.23
       0.1925      4459.89
        0.193      4462.53
       0.1935      4465.16
        0.194      4467.77
       0.1945      4470.36
        0.195      4472.94
       0.1955       4475.5
        0.196      4478.04
       0.1965      4480.57
        0.197      4483.09
       0.1975      4485.59
        0.198      4488.07
       0.1985      4490.53
        0.199      4492.99
       0.1995      4495.42
          0.2      4497.84
       0.2005      4500.25
        0.201      4502.64
       0.2015      4505.01
        0.202      4507.37
       0.2025      4509.72
        0.203      4512.05
       0.2035      4514.37
        0.204      4516.67
       0.2045      4518.96
        0.205      4521.23
       0.2055      4523.49
        0.206      4525.73
       0.2065      4527.96
        0.207      4530.18
       0.2075      4532.38
        0.208      4534.57
       0.2085      4536.75
        0.209      4538.91
       0.2095      4541.06
         0.21      4543.19
       0.2105      4545.32
        0.211      4547.42
       0.2115      4549.52
        0.212       4551.6
       0.2125      4553.67
        0.213      4555.73
       0.2135      4557.77
        0.214       4559.8
       0.2145      4561.82
        0.215      4563.82
       0.2155      4565.81
        0.216      4567.79
       0.2165      4569.76
        0.217      4571.71
       0.2175      4573.66
        0.218      4575.59
       0.2185      4577.51
        0.219      4579.41
       0.2195      4581.31
         0.22      4583.19
       0.2205      4585.06
        0.221      4586.92
       0.2215      4588.77
        0.222       4590.6
       0.2225      4592.43
        0.223      4594.24
       0.2235      4596.04
        0.224      4597.83
       0.2245      4599.61
        0.225      4601.38
       0.2255      4603.14
        0.226      4604.88
       0.2265      4606.62
        0.227      4608.34
       0.2275      4610.06
        0.228      4611.76
       0.2285      4613.45
        0.229      4615.13
       0.2295       4616.8
         0.23      4618.46
       0.2305      4620.11
        0.231      4621.75
       0.2315      4623.38
        0.232         4625
       0.2325      4626.61
        0.233      4628.21
       0.2335       4629.8
        0.234      4631.38
       0.2345      4632.94
        0.235       4634.5
       0.2355      4636.05
        0.236      4637.59
       0.2365      4639.12
        0.237      4640.64
       0.2375      4642.15
        0.238      4643.66
       0.2385      4645.15
        0.239      4646.63
       0.2395       4648.1
         0.24      4649.57
       0.2405      4651.02
        0.241      4652.47
       0.2415       4653.9
        0.242      4655.33
       0.2425      4656.75
        0.243      4658.16
       0.2435      4659.56
        0.244      4660.95
       0.2445      4662.34
        0.245      4663.71
       0.2455      4665.08
        0.246      4666.44
       0.2465      4667.79
        0.247      4669.13
       0.2475      4670.46
        0.248      4671.78
       0.2485       4673.1
        0.249      4674.41
       0.2495      4675.71
         0.25         4677
       0.2505      4678.28
        0.251      4679.56
       0.2515      4680.82
        0.252      4682.08
       0.2525      4683.33
        0.253      4684.58
       0.2535      4685.81
        0.254      4687.04
       0.2545      4688.26
        0.255      4689.47
       0.2555      4690.68
        0.256      4691.87
       0.2565      4693.06
        0.257      4694.25
       0.2575      4695.42
        0.258      4696.59
       0.2585      4697.75
        0.259       4698.9
       0.2595      4700.05
         0.26      4701.19
       0.2605      4702.32
        0.261      4703.44
       0.2615      4704.56
        0.262      4705.67
       0.2625      4706.77
        0.263      4707.87
       0.2635      4708.96
        0.264      4710.04
       0.2645      4711.12
        0.265      4712.19
       0.2655      4713.25
        0.266       4714.3
       0.2665      4715.35
        0.267       4716.4
       0.2675      4717.43
        0.268      4718.46
       0.2685      4719.48
        0.269       4720.5
       0.2695      4721.51
         0.27      4722.51
       0.2705      4723.51
        0.271       4724.5
       0.2715      4725.49
        0.272      4726.47
       0.2725      4727.44
        0.273      4728.41
       0.2735      4729.37
        0.274      4730.32
       0.2745      4731.27
        0.275      4732.21
       0.2755      4733.15
        0.276      4734.08
       0.2765      4735.01
        0.277      4735.93
       0.2775      4736.84
        0.278      4737.75
       0.2785      4738.65
        0.279      4739.55
       0.2795      4740.44
         0.28      4741.32
       0.2805       4742.2
        0.281      4743.08
       0.2815      4743.95
        0.282      4744.81
       0.2825      4745.67
        0.283      4746.52
       0.2835      4747.37
        0.284      4748.21
       0.2845      4749.05
        0.285      4749.88
       0.2855       4750.7
        0.286      4751.52
       0.2865      4752.34
        0.287      4753.15
       0.2875      4753.96
        0.288      4754.76
       0.2885      4755.55
        0.289      4756.34
       0.2895      4757.13
         0.29      4757.91
       0.2905      4758.68
        0.291      4759.46
       0.2915      4760.22
        0.292      4760.98
       0.2925      4761.74
        0.293      4762.49
       0.2935      4763.24
        0.294      4763.98
       0.2945      4764.72
        0.295      4765.45
       0.2955      4766.18
        0.296       4766.9
       0.2965      4767.62
        0.297      4768.34
       0.2975      4769.05
        0.298      4769.75
       0.2985      4770.46
        0.299      4771.15
       0.2995      4771.85
          0.3      4772.53
       0.3005      4773.22
        0.301       4773.9
       0.3015      4774.57
        0.302      4775.25
       0.3025      4775.91
        0.303      4776.58
       0.3035      4777.23
        0.304      4777.89
       0.3045      4778.54
        0.305      4779.19
       0.3055      4779.83
        0.306      4780.47
       0.3065       4781.1
        0.307      4781.73
       0.3075      4782.36
        0.308      4782.98
       0.3085       4783.6
        0.309      4784.21
       0.3095      4784.82
         0.31      4785.43
       0.3105      4786.03
        0.311      4786.63
       0.3115      4787.23
        0.312      4787.82
       0.3125      4788.41
        0.313      4788.99
       0.3135      4789.58
        0.314      4790.15
       0.3145      4790.73
        0.315       4791.3
       0.3155      4791.86
        0.316      4792.43
       0.3165      4792.98
        0.317      4793.54
       0.3175      4794.09
        0.318      4794.64
       0.3185      4795.19
        0.319      4795.73
       0.3195      4796.27
         0.32       4796.8
       0.3205      4797.34
        0.321      4797.86
       0.3215      4798.39
        0.322      4798.91
       0.3225      4799.43
        0.323      4799.95
       0.3235      4800.46
        0.324      4800.97
       0.3245      4801.47
        0.325      4801.98
       0.3255      4802.47
        0.326      4802.97
       0.3265      4803.46
        0.327      4803.95
       0.3275      4804.44
        0.328      4804.93
       0.3285      4805.41
        0.329      4805.89
       0.3295      4806.36
         0.33      4806.83
       0.3305       4807.3
        0.331      4807.77
       0.3315      4808.23
        0.332      4808.69
       0.3325      4809.15
        0.333       4809.6
       0.3335      4810.05
        0.334       4810.5
       0.3345      4810.95
        0.335      4811.39
       0.3355      4811.83
        0.336      4812.27
       0.3365      4812.71
        0.337      4813.14
       0.3375      4813.57
        0.338      4813.99
       0.3385      4814.42
        0.339      4814.84
       0.3395      4815.26
         0.34      4815.68
       0.3405      4816.09
        0.341       4816.5
       0.3415      4816.91
        0.342      4817.32
       0.3425      4817.72
        0.343      4818.12
       0.3435      4818.52
        0.344      4818.91
       0.3445      4819.31
        0.345       4819.7
       0.3455      4820.09
        0.346      4820.47
       0.3465      4820.86
        0.347      4821.24
       0.3475      4821.62
        0.348      4821.99
       0.3485      4822.37
        0.349      4822.74
       0.3495      4823.11
         0.35      4823.47
       0.3505      4823.84
        0.351       4824.2
       0.3515      4824.56
        0.352      4824.92
       0.3525      4825.28
        0.353      4825.63
       0.3535      4825.98
        0.354      4826.33
       0.3545      4826.68
        0.355      4827.02
       0.3555      4827.36
        0.356       4827.7
       0.3565      4828.04
        0.357      4828.38
       0.3575      4828.71
        0.358      4829.05
       0.3585      4829.38
        0.359       4829.7
       0.3595      4830.03
         0.36      4830.35
       0.3605      4830.67
        0.361      4830.99
       0.3615      4831.31
        0.362      4831.63
       0.3625      4831.94
        0.363      4832.25
       0.3635      4832.56
        0.364      4832.87
       0.3645      4833.18
        0.365      4833.48
       0.3655      4833.78
        0.366      4834.08
       0.3665      4834.38
        0.367      4834.68
       0.3675      4834.97
        0.368      4835.27
       0.3685      4835.56
        0.369      4835.85
       0.3695      4836.13
         0.37      4836.42
       0.3705       4836.7
        0.371      4836.98
       0.3715      4837.26
        0.372      4837.54
       0.3725      4837.82
        0.373      4838.09
       0.3735      4838.37
        0.374      4838.64
       0.3745      4838.91
        0.375      4839.18
       0.3755      4839.44
        0.376      4839.71
       0.3765      4839.97
        0.377      4840.23
       0.3775      4840.49
        0.378      4840.75
       0.3785      4841.01
        0.379      4841.26
       0.3795      4841.52
         0.38      4841.77
       0.3805      4842.02
        0.381      4842.27
       0.3815      4842.51
        0.382      4842.76
       0.3825         4843
        0.383      4843.25
       0.3835      4843.49
        0.384      4843.73
       0.3845      4843.97
        0.385       4844.2
       0.3855      4844.44
        0.386      4844.67
       0.3865       4844.9
        0.387      4845.13
       0.3875      4845.36
        0.388      4845.59
       0.3885      4845.82
        0.389      4846.04
       0.3895      4846.27
         0.39      4846.49
       0.3905      4846.71
        0.391      4846.93
       0.3915      4847.15
        0.392      4847.36
       0.3925      4847.58
        0.393      4847.79
       0.3935         4848
        0.394      4848.22
       0.3945      4848.42
        0.395      4848.63
       0.3955      4848.84
        0.396      4849.05
       0.3965      4849.25
        0.397      4849.46
       0.3975      4849.66
        0.398      4849.86
       0.3985      4850.06
        0.399      4850.26
       0.3995      4850.45
          0.4      4850.65
       0.4005      4850.84
        0.401      4851.04
       0.4015      4851.23
        0.402      4851.42
       0.4025      4851.61
        0.403       4851.8
       0.4035      4851.99
        0.404      4852.17
       0.4045      4852.36
        0.405      4852.54
       0.4055      4852.73
        0.406      4852.91
       0.4065      4853.09
        0.407      4853.27
       0.4075      4853.45
        0.408      4853.62
       0.4085       4853.8
        0.409      4853.97
       0.4095      4854.15
         0.41      4854.32
       0.4105      4854.49
        0.411      4854.66
       0.4115      4854.83
        0.412         4855
       0.4125      4855.17
        0.413      4855.34
       0.4135       4855.5
        0.414      4855.67
       0.4145      4855.83
        0.415      4855.99
       0.4155      4856.15
        0.416      4856.31
       0.4165      4856.47
        0.417      4856.63
       0.4175      4856.79
        0.418      4856.94
       0.4185       4857.1
        0.419      4857.25
       0.4195      4857.41
         0.42      4857.56
       0.4205      4857.71
        0.421      4857.86
       0.4215      4858.01
        0.422      4858.16
       0.4225      4858.31
        0.423      4858.46
       0.4235       4858.6
        0.424      4858.75
       0.4245      4858.89
        0.425      4859.03
       0.4255      4859.18
        0.426      4859.32
       0.4265      4859.46
        0.427       4859.6
       0.4275      4859.74
        0.428      4859.87
       0.4285      4860.01
        0.429      4860.15
       0.4295      4860.28
         0.43      4860.42
       0.4305      4860.55
        0.431      4860.68
       0.4315      4860.82
        0.432      4860.95
       0.4325      4861.08
        0.433      4861.21
       0.4335      4861.34
        0.434      4861.46
       0.4345      4861.59
        0.435      4861.72
       0.4355      4861.84
        0.436      4861.97
       0.4365      4862.09
        0.437      4862.22
       0.4375      4862.34
        0.438      4862.46
       0.4385      4862.58
        0.439       4862.7
       0.4395      4862.82
         0.44      4862.94
       0.4405      4863.06
        0.441      4863.17
       0.4415      4863.29
        0.442      4863.41
       0.4425      4863.52
        0.443      4863.64
       0.4435      4863.75
        0.444      4863.86
       0.4445      4863.97
        0.445      4864.09
       0.4455       4864.2
        0.446      4864.31
       0.4465      4864.42
        0.447      4864.52
       0.4475      4864.63
        0.448      4864.74
       0.4485      4864.85
        0.449      4864.95
       0.4495      4865.06
         0.45      4865.16
       0.4505      4865.27
        0.451      4865.37
       0.4515      4865.47
        0.452      4865.58
       0.4525      4865.68
        0.453      4865.78
       0.4535      4865.88
        0.454      4865.98
       0.4545      4866.08
        0.455      4866.17
       0.4555      4866.27
        0.456      4866.37
       0.4565      4866.47
        0.457      4866.56
       0.4575      4866.66
        0.458      4866.75
       0.4585      4866.85
        0.459      4866.94
       0.4595      4867.03
         0.46      4867.13
       0.4605      4867.22
        0.461      4867.31
       0.4615       4867.4
        0.462      4867.49
       0.4625      4867.58
        0.463      4867.67
       0.4635      4867.76
        0.464      4867.84
       0.4645      4867.93
        0.465      4868.02
       0.4655      4868.11
        0.466      4868.19
       0.4665      4868.28
        0.467      4868.36
       0.4675      4868.44
        0.468      4868.53
       0.4685      4868.61
        0.469      4868.69
       0.4695      4868.78
         0.47      4868.86
       0.4705      4868.94
        0.471      4869.02
       0.4715       4869.1
        0.472      4869.18
       0.4725      4869.26
        0.473      4869.34
       0.4735      4869.41
        0.474      4869.49
       0.4745      4869.57
        0.475      4869.65
       0.4755      4869.72
        0.476       4869.8
       0.4765      4869.87
        0.477      4869.95
       0.4775      4870.02
        0.478       4870.1
       0.4785      4870.17
        0.479      4870.24
       0.4795      4870.31
         0.48      4870.39
       0.4805      4870.46
        0.481      4870.53
       0.4815       4870.6
        0.482      4870.67
       0.4825      4870.74
        0.483      4870.81
       0.4835      4870.88
        0.484      4870.95
       0.4845      4871.01
        0.485      4871.08
       0.4855      4871.15
        0.486      4871.22
       0.4865      4871.28
        0.487      4871.35
       0.4875      4871.41
        0.488      4871.48
       0.4885      4871.54
        0.489      4871.61
       0.4895      4871.67
         0.49      4871.74
       0.4905       4871.8
        0.491      4871.86
       0.4915      4871.92
        0.492      4871.99
       0.4925      4872.05
        0.493      4872.11
       0.4935      4872.17
        0.494      4872.23
       0.4945      4872.29
        0.495      4872.35
       0.4955      4872.41
        0.496      4872.47
       0.4965      4872.53
        0.497      4872.59
       0.4975      4872.64
        0.498       4872.7
       0.4985      4872.76
        0.499      4872.82
       0.4995      4872.87
          0.5      4872.93
       0.5005      4872.98
        0.501      4873.04
       0.5015      4873.09
        0.502      4873.15
       0.5025       4873.2
        0.503      4873.26
       0.5035      4873.31
        0.504      4873.36
       0.5045      4873.42
        0.505      4873.47
       0.5055      4873.52
        0.506      4873.57
       0.5065      4873.63
        0.507      4873.68
       0.5075      4873.73
        0.508      4873.78
       0.5085      4873.83
        0.509      4873.88
       0.5095      4873.93
         0.51      4873.98
       0.5105      4874.03
        0.511      4874.08
       0.5115      4874.13
        0.512      4874.18
       0.5125      4874.22
        0.513      4874.27
       0.5135      4874.32
        0.514      4874.37
       0.5145      4874.41
        0.515      4874.46
       0.5155      4874.51
        0.516      4874.55
       0.5165       4874.6
        0.517      4874.64
       0.5175      4874.69
        0.518      4874.73
       0.5185      4874.78
        0.519      4874.82
       0.5195      4874.87
         0.52      4874.91
       0.5205      4874.95
        0.521         4875
       0.5215      4875.04
        0.522      4875.08
       0.5225      4875.12
        0.523      4875.17
       0.5235      4875.21
        0.524      4875.25
       0.5245      4875.29
        0.525      4875.33
       0.5255      4875.37
        0.526      4875.41
       0.5265      4875.45
        0.527      4875.49
       0.5275      4875.53
        0.528      4875.57
       0.5285      4875.61
        0.529      4875.65
       0.5295      4875.69
         0.53      4875.73
       0.5305      4875.77
        0.531      4875.81
       0.5315      4875.84
        0.532      4875.88
       0.5325      4875.92
        0.533      4875.96
       0.5335      4875.99
        0.534      4876.03
       0.5345      4876.07
        0.535       4876.1
       0.5355      4876.14
        0.536      4876.18
       0.5365      4876.21
        0.537      4876.25
       0.5375      4876.28
        0.538      4876.32
       0.5385      4876.35
        0.539      4876.39
       0.5395      4876.42
         0.54      4876.45
       0.5405      4876.49
        0.541      4876.52
       0.5415      4876.56
        0.542      4876.59
       0.5425      4876.62
        0.543      4876.65
       0.5435      4876.69
        0.544      4876.72
       0.5445      4876.75
        0.545      4876.78
       0.5455      4876.82
        0.546      4876.85
       0.5465      4876.88
        0.547      4876.91
       0.5475      4876.94
        0.548      4876.97
       0.5485         4877
        0.549      4877.03
       0.5495      4877.06
         0.55      4877.09
       0.5505      4877.12
        0.551      4877.15
       0.5515      4877.18
        0.552      4877.21
       0.5525      4877.24
        0.553      4877.27
       0.5535       4877.3
        0.554      4877.33
       0.5545      4877.36