/*--------------------------------*- C++ -*----------------------------------*\
  =========                 |
  \\      /  F ield         | OpenFOAM: The Open Source CFD Toolbox
   \\    /   O peration     | Website:  https://openfoam.org
    \\  /    A nd           | Version:  8
     \\/     M anipulation  |
\*---------------------------------------------------------------------------*/
FoamFile
{
    version     2.0;
    format      ascii;
    class       volScalarField;
    location    "10";
    object      nu;
}
// * * * * * * * * * * * * * * * * * * * * * * * * * * * * * * * * * * * * * //

dimensions      [0 2 -1 0 0 0 0];

internalField   nonuniform List<scalar> 
1000
(
0.262697
0.243397
0.249003
0.277798
0.350959
0.5
0.5
0.5
0.5
0.5
0.361946
0.297047
0.280346
0.297513
0.362819
0.5
0.5
0.5
0.5
0.5
0.365918
0.301419
0.284465
0.301085
0.365493
0.5
0.5
0.5
0.5
0.5
0.367711
0.303518
0.286584
0.303101
0.367292
0.290067
0.285331
0.298015
0.329673
0.384328
0.458841
0.494437
0.5
0.499506
0.470048
0.405329
0.3641
0.351157
0.3654
0.408034
0.474423
0.5
0.5
0.5
0.477912
0.413602
0.372404
0.35893
0.372187
0.413555
0.478683
0.5
0.5
0.5
0.481164
0.417277
0.376339
0.362858
0.375873
0.416839
0.300033
0.305696
0.321305
0.348273
0.385858
0.427435
0.454258
0.465399
0.462223
0.44454
0.414853
0.392621
0.385445
0.395021
0.41986
0.452582
0.473998
0.481791
0.476521
0.457671
0.427431
0.404582
0.396474
0.40482
0.428284
0.459739
0.480299
0.487577
0.482015
0.463108
0.433006
0.410227
0.40201
0.41006
0.433115
0.304177
0.314953
0.331017
0.353128
0.379878
0.406787
0.426497
0.43651
0.436768
0.428319
0.414685
0.403901
0.400971
0.407503
0.422137
0.440111
0.453641
0.459443
0.456837
0.446455
0.431449
0.419426
0.415173
0.420268
0.433447
0.450111
0.462633
0.46773
0.464666
0.454035
0.438916
0.426768
0.422294
0.42706
0.439856
0.305775
0.318451
0.333812
0.352148
0.372319
0.391689
0.406841
0.415955
0.41877
0.416286
0.411007
0.406831
0.406667
0.411604
0.420804
0.4316
0.440327
0.444718
0.44407
0.439012
0.43172
0.425792
0.423963
0.42727
0.434919
0.444333
0.451928
0.455451
0.454168
0.448664
0.441044
0.434819
0.432663
0.435606
0.442889
0.306159
0.319061
0.33328
0.348845
0.364956
0.380086
0.392471
0.401003
0.405488
0.406631
0.405993
0.405649
0.407253
0.411486
0.417901
0.425067
0.43112
0.434707
0.435344
0.433453
0.430336
0.42785
0.427509
0.429936
0.434692
0.440385
0.445192
0.447767
0.447604
0.445087
0.441463
0.43853
0.437765
0.439783
0.444169
0.305987
0.318334
0.331323
0.344846
0.358353
0.37094
0.381632
0.389785
0.395284
0.398581
0.400608
0.402522
0.405272
0.409278
0.414327
0.419667
0.42432
0.427526
0.42899
0.42897
0.428208
0.427703
0.428294
0.430344
0.433625
0.437397
0.440697
0.442762
0.443281
0.442479
0.441059
0.43998
0.440056
0.441644
0.444532
0.305595
0.317092
0.328918
0.340906
0.352662
0.363629
0.37324
0.381117
0.387196
0.391751
0.395331
0.3986
0.402108
0.406121
0.410549
0.415006
0.418981
0.422057
0.424072
0.425175
0.425788
0.426459
0.427656
0.429593
0.432157
0.434957
0.43748
0.439303
0.440247
0.440437
0.440265
0.440252
0.440849
0.442265
0.444397
0.305154
0.315755
0.326551
0.337356
0.347875
0.357745
0.366618
0.374266
0.380646
0.385921
0.390411
0.394503
0.398523
0.40264
0.406829
0.410899
0.414586
0.417671
0.42007
0.421873
0.423319
0.424715
0.426327
0.428282
0.430528
0.432863
0.435014
0.436749
0.437972
0.438752
0.439306
0.439924
0.440856
0.442228
0.443992
0.304745
0.314521
0.324439
0.334315
0.34392
0.353003
0.361337
0.368773
0.375281
0.380952
0.385972
0.390567
0.394934
0.399184
0.403321
0.407257
0.410861
0.414022
0.416703
0.418961
0.420935
0.4228
0.42471
0.426744
0.428881
0.43102
0.433017
0.43475
0.436168
0.437312
0.438304
0.439308
0.440465
0.441852
0.443451
0.3044
0.313471
0.322662
0.331802
0.340708
0.349197
0.35711
0.364345
0.370874
0.376745
0.382064
0.386965
0.391567
0.395945
0.400114
0.404039
0.407659
0.410924
0.413821
0.41639
0.418715
0.420898
0.423032
0.425167
0.4273
0.429382
0.431341
0.433115
0.434679
0.436059
0.437327
0.438577
0.43989
0.441316
0.442852
0.304127
0.312628
0.321231
0.329786
0.338144
0.346166
0.353737
0.36078
0.367268
0.373222
0.378701
0.383783
0.388541
0.393027
0.397257
0.401223
0.404902
0.408275
0.411343
0.414134
0.416703
0.419112
0.421419
0.423659
0.425837
0.427932
0.42991
0.431743
0.433422
0.434964
0.436413
0.437826
0.439251
0.440722
0.442243
0.303925
0.311983
0.320121
0.328213
0.336138
0.343787
0.351073
0.357935
0.364347
0.370314
0.375867
0.38105
0.385909
0.390478
0.394773
0.398798
0.402548
0.406021
0.409223
0.412179
0.414924
0.4175
0.419944
0.422282
0.424523
0.426662
0.428685
0.430582
0.432353
0.434011
0.435584
0.437109
0.438616
0.440129
0.441656
0.303785
0.311514
0.319295
0.327024
0.334606
0.341954
0.349001
0.355697
0.362018
0.367959
0.373535
0.378769
0.383688
0.388317
0.392668
0.396751
0.400569
0.404127
0.407437
0.410516
0.413392
0.416093
0.418645
0.42107
0.423378
0.42557
0.427646
0.429605
0.431449
0.433192
0.434854
0.436456
0.438023
0.439571
0.441109
0.303698
0.311196
0.31871
0.326161
0.333473
0.34058
0.347428
0.353977
0.360204
0.3661
0.371667
0.37692
0.381873
0.386541
0.390936
0.395068
0.398944
0.402572
0.405964
0.409136
0.41211
0.414905
0.417543
0.420041
0.42241
0.424655
0.426782
0.428794
0.430698
0.432504
0.434228
0.435886
0.437494
0.439065
0.440612
0.303653
0.310999
0.318323
0.325564
0.332669
0.339586
0.346273
0.352697
0.358836
0.364679
0.370224
0.375476
0.380443
0.385135
0.389561
0.39373
0.397651
0.401333
0.404787
0.408029
0.411075
0.413941
0.416646
0.419202
0.421622
0.423914
0.426085
0.428142
0.430092
0.431944
0.433711
0.435406
0.43704
0.438625
0.440171
0.30364
0.310896
0.318089
0.325181
0.332132
0.338904
0.345465
0.351787
0.357851
0.363644
0.369161
0.374402
0.379372
0.384076
0.388521
0.392717
0.39667
0.400391
0.40389
0.407182
0.410279
0.413198
0.415951
0.418552
0.421013
0.423342
0.425548
0.427639
0.429623
0.431508
0.433304
0.435021
0.436669
0.438255
0.43979
0.303647
0.310857
0.317969
0.32496
0.331804
0.338473
0.344942
0.351187
0.357191
0.362942
0.368432
0.373659
0.378625
0.383334
0.38779
0.392001
0.395976
0.399723
0.403253
0.406578
0.409711
0.412664
0.415452
0.418085
0.420575
0.422931
0.425163
0.427278
0.429285
0.431192
0.433006
0.434735
0.436384
0.43796
0.43947
0.303662
0.310856
0.317923
0.324854
0.331632
0.338237
0.344646
0.35084
0.356803
0.362523
0.367992
0.373207
0.378167
0.382876
0.387337
0.391557
0.395543
0.399305
0.402853
0.406198
0.409352
0.412327
0.415136
0.417789
0.420297
0.422671
0.424919
0.42705
0.429071
0.43099
0.432813
0.434545
0.43619
0.437748
0.439218
0.303674
0.310866
0.317916
0.324821
0.331569
0.338143
0.344523
0.350692
0.356634
0.362338
0.367796
0.373003
0.377959
0.382666
0.387128
0.391351
0.395342
0.399111
0.402667
0.406021
0.409185
0.412169
0.414987
0.41765
0.420167
0.422549
0.424804
0.426942
0.42897
0.430894
0.43272
0.434453
0.436092
0.437632
0.439055
0.5
0.5
0.5
0.5
0.5
0.361119
0.29548
0.278356
0.292981
0.356468
0.5
0.5
0.5
0.5
0.5
0.481428
0.5
0.5
0.5
0.48685
0.415756
0.370491
0.355307
0.368738
0.415244
0.497614
0.5
0.5
0.5
0.5
0.464136
0.485708
0.494221
0.489482
0.469934
0.435481
0.40876
0.398848
0.408498
0.438393
0.483034
0.5
0.5
0.5
0.5
0.456173
0.469489
0.475704
0.473341
0.462152
0.444454
0.42955
0.423987
0.430757
0.44991
0.477009
0.5
0.5
0.5
0.5
0.452011
0.460165
0.464579
0.463894
0.458093
0.449021
0.441152
0.438559
0.443543
0.456217
0.473912
0.491155
0.5
0.5
0.5
0.449597
0.454763
0.457994
0.458331
0.45575
0.451402
0.447651
0.446947
0.45088
0.459664
0.471833
0.48453
0.495455
0.5
0.5
0.448038
0.451537
0.454053
0.454976
0.454261
0.45257
0.451216
0.451664
0.454968
0.461369
0.470095
0.479556
0.48817
0.494851
0.498994
0.44691
0.449502
0.451608
0.452858
0.453206
0.453024
0.453055
0.45418
0.457083
0.461979
0.468471
0.475637
0.482407
0.487882
0.491427
0.446003
0.448115
0.449994
0.451427
0.452375
0.453046
0.453869
0.455372
0.457994
0.461906
0.466904
0.472437
0.477782
0.482237
0.485232
0.445217
0.447083
0.448842
0.450376
0.45166
0.452809
0.454073
0.455769
0.458177
0.461421
0.465395
0.469759
0.47402
0.477649
0.480164
0.444507
0.446251
0.44795
0.44954
0.451007
0.452418
0.453918
0.455698
0.457933
0.460708
0.463964
0.467483
0.470927
0.4739
0.476014
0.443853
0.445541
0.44721
0.44883
0.450395
0.451943
0.45356
0.455361
0.457452
0.459887
0.46263
0.465535
0.468365
0.470825
0.472609
0.44325
0.444912
0.446567
0.448201
0.449814
0.451429
0.453097
0.454884
0.456854
0.459039
0.461409
0.463864
0.466233
0.468294
0.469809
0.442697
0.444345
0.445991
0.447629
0.449262
0.450906
0.452587
0.454346
0.456216
0.458213
0.460311
0.462435
0.464457
0.466209
0.467506
0.442195
0.443831
0.445467
0.447102
0.448741
0.450391
0.452068
0.453794
0.455584
0.457441
0.45934
0.461221
0.462983
0.464498
0.465618
0.441742
0.443362
0.444985
0.446612
0.448247
0.449894
0.451561
0.453255
0.454983
0.456738
0.458495
0.4602
0.461772
0.463106
0.464082
0.441336
0.442933
0.444537
0.446153
0.44778
0.449419
0.451073
0.452743
0.454427
0.456111
0.45777
0.459355
0.460794
0.461994
0.462854
0.440972
0.442534
0.444115
0.445715
0.447332
0.448964
0.450608
0.452262
0.453917
0.455558
0.457157
0.458668
0.460022
0.461134
0.461905
0.440642
0.442153
0.443705
0.445288
0.446896
0.448522
0.450161
0.451806
0.453448
0.455069
0.456641
0.458118
0.459436
0.460507
0.461222
0.440331
0.441771
0.443291
0.444859
0.44646
0.448084
0.449722
0.451367
0.453009
0.45463
0.456202
0.457683
0.459009
0.460094
0.46081
)
;

boundaryField
{
    inlet
    {
        type            calculated;
        value           uniform 0.3;
    }
    outlet
    {
        type            calculated;
        value           nonuniform List<scalar> 
20
(
0.5
0.5
0.5
0.5
0.5
0.5
0.498994
0.491427
0.485232
0.480164
0.476014
0.472609
0.469809
0.467506
0.465618
0.464082
0.462854
0.461905
0.461222
0.46081
)
;
    }
    top
    {
        type            calculated;
        value           nonuniform List<scalar> 
50
(
0.303674
0.310866
0.317916
0.324821
0.331569
0.338143
0.344523
0.350692
0.356634
0.362338
0.367796
0.373003
0.377959
0.382666
0.387128
0.391351
0.395342
0.399111
0.402667
0.406021
0.409185
0.412169
0.414987
0.41765
0.420167
0.422549
0.424804
0.426942
0.42897
0.430894
0.43272
0.434453
0.436092
0.437632
0.439055
0.440331
0.441771
0.443291
0.444859
0.44646
0.448084
0.449722
0.451367
0.453009
0.45463
0.456202
0.457683
0.459009
0.460094
0.46081
)
;
    }
    bottom
    {
        type            calculated;
        value           nonuniform List<scalar> 
50
(
0.2
0.2
0.2
0.2
0.2
0.5
0.5
0.5
0.5
0.5
0.2
0.2
0.2
0.2
0.2
0.5
0.5
0.5
0.5
0.5
0.2
0.2
0.2
0.2
0.2
0.5
0.5
0.5
0.5
0.5
0.2
0.2
0.2
0.2
0.2
0.5
0.5
0.5
0.5
0.5
0.2
0.2
0.2
0.2
0.2
0.5
0.5
0.5
0.5
0.5
)
;
    }
    frontAndBack
    {
        type            empty;
    }
}


// ************************************************************************* //
