/*--------------------------------*- C++ -*----------------------------------*\
  =========                 |
  \\      /  F ield         | OpenFOAM: The Open Source CFD Toolbox
   \\    /   O peration     | Website:  https://openfoam.org
    \\  /    A nd           | Version:  8
     \\/     M anipulation  |
\*---------------------------------------------------------------------------*/
FoamFile
{
    version     2.0;
    format      ascii;
    class       volScalarField;
    location    "10";
    object      p;
}
// * * * * * * * * * * * * * * * * * * * * * * * * * * * * * * * * * * * * * //

dimensions      [0 2 -2 0 0 0 0];

internalField   nonuniform List<scalar> 
1000
(
24.3146
25.7219
26.1823
26.5383
27.0662
27.5142
27.064
26.8724
26.6892
25.6768
25.6727
25.6593
24.875
24.1079
24.1443
24.1027
22.9251
22.5156
22.1099
20.8913
20.8766
20.9465
20.1462
19.3436
19.4098
19.379
18.1176
17.6688
17.2221
15.9099
15.9219
15.9798
15.132
14.2187
14.4426
24.063
25.679
26.3405
26.9619
27.5913
27.5473
27.0182
26.7207
26.3458
25.4189
24.7419
24.8743
24.8309
24.7947
24.9213
24.1682
23.0871
22.488
21.9024
20.8143
20.0401
20.1664
20.1201
20.0685
20.1996
19.3997
18.2561
17.6195
16.9924
15.8109
14.9874
15.0997
15.0616
14.9143
15.2367
24.929
26.0644
26.6234
27.1645
27.575
27.5636
27.1316
26.694
26.1945
25.4952
25.0196
24.9359
24.8181
24.6719
24.6045
24.0491
23.1738
22.492
21.8064
20.9461
20.3697
20.2664
20.1173
19.9408
19.8479
19.2419
18.3208
17.6014
16.8784
15.9468
15.3198
15.1644
15.0046
14.7012
14.8293
26.3418
26.9964
27.3827
27.6443
27.8196
27.6715
27.2583
26.7789
26.2551
25.6414
25.1689
24.9733
24.8161
24.6298
24.4391
23.9237
23.1795
22.4985
21.8047
21.0776
20.5461
20.3077
20.0982
19.8813
19.6515
19.0962
18.3185
17.5928
16.8569
16.0756
15.4808
15.1718
14.9672
14.6085
14.5681
27.988
28.0373
28.1332
28.1402
28.0894
27.822
27.3939
26.8987
26.367
25.8199
25.39
25.1038
24.8398
24.5687
24.2557
23.7675
23.1452
22.5123
21.8815
21.2454
20.7297
20.3974
20.0951
19.7887
19.4412
18.9164
18.2575
17.5871
16.9087
16.2298
15.6725
15.2602
14.9482
14.4775
14.3317
29.6171
29.0989
28.8859
28.6561
28.3792
28.0113
27.5439
27.0341
26.5055
25.9976
25.5578
25.196
24.8694
24.5333
24.1606
23.6809
23.116
22.5292
21.9436
21.3646
20.8604
20.4651
20.097
19.7266
19.3208
18.8085
18.2103
17.588
16.9585
16.34
15.7973
15.3286
14.9437
14.4099
14.1803
30.9838
30.0162
29.5731
29.1153
28.684
28.2074
27.6979
27.1717
26.6476
26.144
25.6915
25.2895
24.9088
24.5192
24.1027
23.6254
23.0964
22.5463
21.9938
21.4543
20.958
20.5208
20.1021
19.6813
19.2365
18.731
18.1727
17.5916
17.0036
16.4257
15.8921
15.3927
14.9498
14.386
14.0756
32.0366
30.7629
30.1677
29.4883
28.9366
28.3757
27.8294
27.2877
26.7621
26.2599
25.7922
25.3585
24.9419
24.516
24.0711
23.5927
23.0851
22.562
22.0359
21.5175
21.0237
20.5618
20.1104
19.6577
19.1916
18.6906
18.1563
17.6041
17.0455
16.4947
15.9664
15.4588
14.9708
14.4009
14.0066
32.6719
31.1893
30.5089
29.719
29.0976
28.487
27.9195
27.37
26.845
26.3437
25.8703
25.4292
24.9927
24.5327
24.0668
23.5884
23.0909
22.5816
22.066
21.5567
21.0661
20.593
20.1143
19.6318
19.1528
18.658
18.1416
17.6095
17.0685
16.5372
16.0188
15.5059
14.9975
14.4625
13.9608
33.0249
31.4816
30.6784
29.8284
29.1658
28.5324
27.9583
27.4095
26.8878
26.3859
25.9021
25.4331
24.9697
24.4981
24.0242
23.5522
23.0686
22.5767
22.0781
21.5787
21.0842
20.5974
20.1178
19.6455
19.1724
18.684
18.1753
17.6546
17.1272
16.6035
16.0798
15.5636
15.0307
14.553
13.9258
32.9424
31.4111
30.6155
29.7725
29.1198
28.4983
27.9389
27.4044
26.8947
26.3994
25.916
25.4315
24.9577
24.5038
24.04
23.5614
23.0733
22.5812
22.0899
21.5982
21.1054
20.6173
20.1437
19.6716
19.181
18.678
18.1676
17.6557
17.1429
16.6307
16.1065
15.6168
15.0614
14.6487
13.8941
32.4396
30.9961
30.3353
29.56
28.9642
28.3868
27.8634
27.3576
26.8702
26.392
25.9219
25.4557
24.9944
24.5404
24.0762
23.5913
23.0982
22.602
22.1077
21.616
21.1276
20.6425
20.1561
19.6599
19.1523
18.6434
18.137
17.6338
17.1295
16.6346
16.1214
15.6614
15.0963
14.767
13.8672
31.6961
30.478
29.9046
29.2427
28.728
28.2165
27.7435
27.2762
26.8169
26.3581
25.8995
25.4385
24.9763
24.5139
24.0469
23.5698
23.0868
22.5997
22.1106
21.6199
21.1283
20.6365
20.1447
19.6502
19.1517
18.6527
18.1529
17.6559
17.1564
16.6709
16.1619
15.7221
15.1352
14.8983
13.8421
30.6003
29.7293
29.3084
28.8102
28.4135
27.9942
27.5878
27.1696
26.7449
26.3108
25.8689
25.4196
24.9643
24.5038
24.0363
23.5601
23.0778
22.5912
22.102
21.6112
21.1195
20.6269
20.1332
19.6372
19.1385
18.6401
18.1422
17.6496
17.1551
16.6807
16.1783
15.7666
15.1667
15.0336
13.8177
29.3188
28.8644
28.6439
28.3581
28.077
27.7626
27.4236
27.0562
26.6661
26.2558
25.8294
25.3896
24.9394
24.4808
24.0145
23.5404
23.0606
22.5761
22.0882
21.5977
21.1053
20.6115
20.1164
19.6201
19.1226
18.6261
18.1302
17.6409
17.1498
16.6839
16.186
15.8009
15.189
15.1642
13.7928
27.8953
27.9409
27.9618
27.9035
27.7457
27.5347
27.2638
26.9457
26.5883
26.2
25.7876
25.3567
24.9116
24.4555
23.9903
23.5173
23.0382
22.5543
22.0667
21.5762
21.0835
20.589
20.0929
19.5957
19.0976
18.6009
18.1052
17.6172
17.1279
16.6689
16.1752
15.8166
15.1983
15.2842
13.7727
26.5291
27.1301
27.3612
27.5039
27.4799
27.3612
27.1477
26.8677
26.5334
26.1593
25.7549
25.3282
24.8849
24.4293
23.9642
23.4913
23.0125
22.529
22.0416
21.5509
21.0576
20.5621
20.0649
19.5664
19.0669
18.5686
18.0708
17.5811
17.0897
16.6318
16.1375
15.7964
15.1723
15.358
13.7413
25.3587
26.4562
26.8605
27.1973
27.2774
27.2352
27.065
26.8108
26.49
26.1226
25.7207
25.2945
24.8507
24.3943
23.9284
23.4551
22.9761
22.4925
22.0051
21.5145
21.021
20.5251
20.027
19.5271
19.0257
18.5248
18.0237
17.5302
17.0347
16.5746
16.0789
15.7517
15.1339
15.4156
13.7414
24.6072
26.1807
26.7467
27.2061
27.3254
27.2905
27.114
26.8501
26.5164
26.1362
25.7228
25.287
24.8358
24.3738
23.9039
23.4281
22.9473
22.463
21.9753
21.484
20.9896
20.4926
19.9928
19.4904
18.9853
18.479
17.9707
17.4672
16.9592
16.482
15.9676
15.6154
14.9808
15.2442
13.6118
24.7703
26.2965
26.8211
27.3012
27.4253
27.3972
27.1989
26.9016
26.5367
26.1307
25.697
25.246
24.7841
24.3153
23.8415
23.3637
22.8828
22.3983
21.9108
21.4206
20.9274
20.4309
19.9308
19.4267
18.9184
18.4066
17.8901
17.3749
16.851
16.3532
15.8141
15.4399
14.795
15.1807
13.6267
14.2481
12.8782
12.2121
11.6282
9.91864
9.90584
9.79682
8.49686
7.1509
6.98842
6.90055
4.7759
3.92062
2.52622
1.35742
14.0983
12.9233
12.0352
11.2692
9.66018
8.53503
8.59218
8.32641
8.02305
8.13187
6.87867
4.8997
3.83903
2.47228
1.19606
13.8126
12.9332
11.9351
11.0657
9.76791
8.84588
8.58155
8.24341
7.84776
7.71574
6.59067
4.87458
3.78055
2.44169
1.1316
13.5525
12.9118
11.8821
10.9758
9.87062
8.9934
8.54273
8.17271
7.76236
7.41565
6.37875
4.8742
3.69516
2.43681
1.12761
13.3371
12.8199
11.8595
11.0136
10.0478
9.224
8.63895
8.1408
7.62059
7.08251
6.14533
4.84398
3.63683
2.41832
1.16469
13.2198
12.7509
11.8612
11.0653
10.1873
9.39062
8.72808
8.13357
7.52389
6.87175
5.9712
4.80129
3.63108
2.39636
1.23453
13.1815
12.7058
11.8908
11.1339
10.3177
9.53674
8.82404
8.14905
7.46036
6.72165
5.8326
4.73696
3.63339
2.38021
1.34197
13.2156
12.6882
11.9458
11.2086
10.4359
9.66211
8.91926
8.18631
7.43796
6.63489
5.74103
4.67055
3.6306
2.34276
1.48119
13.3111
12.6951
12.0278
11.2947
10.5557
9.78371
9.02203
8.24616
7.45196
6.59698
5.69068
4.614
3.62687
2.26003
1.60628
13.4571
12.7229
12.136
11.395
10.6845
9.91124
9.13847
8.33104
7.50227
6.6037
5.68204
4.57904
3.64499
2.18881
1.8294
13.6432
12.7684
12.27
11.5134
10.8296
10.054
9.27567
8.44547
7.59039
6.65205
5.71235
4.55961
3.67743
2.00119
2.02646
13.8657
12.8317
12.4299
11.6531
10.9961
10.2186
9.43839
8.58916
7.71574
6.7422
5.78456
4.57023
3.71608
1.85442
2.18966
14.118
12.9124
12.6148
11.8167
11.1875
10.4098
9.63428
8.78212
7.89286
6.88212
5.90607
4.62328
3.80003
1.75255
2.36751
14.3941
13.0123
12.8245
12.0073
11.4073
10.6365
9.86335
9.00213
8.10185
7.07168
6.08223
4.71743
3.91539
1.58384
2.58273
14.6863
13.1334
13.0567
12.2247
11.6507
10.88
10.1246
9.27034
8.36625
7.31352
6.31461
4.86999
4.10006
1.44077
2.82972
14.9912
13.2829
13.3122
12.4766
11.9335
11.1788
10.4308
9.56999
8.69285
7.63983
6.64187
5.10526
4.35741
1.3106
3.08994
15.2934
13.4714
13.5912
12.7628
12.2395
11.5011
10.7731
9.93765
9.07483
8.01468
7.04885
5.4406
4.74424
1.24814
3.39741
15.5975
13.7029
13.8826
13.0885
12.5823
11.8678
11.1573
10.3422
9.51218
8.47865
7.57119
5.90974
5.32067
1.30947
3.80265
15.9179
14.0892
14.2264
13.459
12.9315
12.2307
11.531
10.74
9.94521
8.95343
8.12335
6.49157
6.0353
1.65426
4.33749
16.1582
14.4578
14.5962
13.941
13.4174
12.7411
12.0593
11.2925
10.5567
9.60366
8.95473
7.31569
7.43108
2.38379
5.97591
)
;

boundaryField
{
    inlet
    {
        type            zeroGradient;
    }
    outlet
    {
        type            totalPressure;
        rho             rho;
        psi             none;
        gamma           1;
        p0              uniform 0;
        value           uniform 0;
    }
    top
    {
        type            zeroGradient;
    }
    bottom
    {
        type            zeroGradient;
    }
    frontAndBack
    {
        type            empty;
    }
}


// ************************************************************************* //
