/*--------------------------------*- C++ -*----------------------------------*\
  =========                 |
  \\      /  F ield         | OpenFOAM: The Open Source CFD Toolbox
   \\    /   O peration     | Website:  https://openfoam.org
    \\  /    A nd           | Version:  8
     \\/     M anipulation  |
\*---------------------------------------------------------------------------*/
FoamFile
{
    version     2.0;
    format      ascii;
    class       surfaceScalarField;
    location    "10";
    object      phi;
}
// * * * * * * * * * * * * * * * * * * * * * * * * * * * * * * * * * * * * * //

dimensions      [0 3 -1 0 0 0 0];

internalField   nonuniform List<scalar> 
1930
(
5.61854e-05
-2.76667e-05
0.000103141
-4.69559e-05
0.000149625
-4.64833e-05
0.000181125
-3.15002e-05
0.000187895
-6.77042e-06
0.000188351
-4.55998e-07
0.00019731
-8.95916e-06
0.000211038
-1.37282e-05
0.000231116
-2.0078e-05
0.000268745
-3.76284e-05
0.000312632
-4.38873e-05
0.000335789
-2.31568e-05
0.000340492
-4.7028e-06
0.000325586
1.4906e-05
0.000288006
3.75801e-05
0.000257548
3.04573e-05
0.000248044
9.50455e-06
0.000249229
-1.18566e-06
0.000261249
-1.20195e-05
0.000295357
-3.41083e-05
0.000337832
-4.24748e-05
0.000358728
-2.08958e-05
0.000360834
-2.10615e-06
0.000343403
1.74313e-05
0.000303064
4.03388e-05
0.000270803
3.22606e-05
0.000261109
9.69483e-06
0.000263176
-2.06717e-06
0.0002773
-1.41242e-05
0.000315447
-3.81467e-05
0.000363445
-4.79983e-05
0.000389514
-2.60686e-05
0.000396236
-6.7227e-06
0.000381105
1.51313e-05
4.00847e-05
0.00034102
0.000275214
-7.18623e-05
0.000347155
-0.000118896
0.000417782
-0.00011711
0.00047252
-8.62382e-05
0.00051337
-4.7621e-05
0.000542867
-2.9953e-05
0.000567827
-3.39186e-05
0.000594368
-4.02694e-05
0.000624612
-5.03222e-05
0.000655203
-6.82191e-05
0.000681753
-7.04373e-05
0.000703173
-4.45765e-05
0.000711877
-1.34072e-05
0.000707833
1.89501e-05
0.000699453
4.59601e-05
0.000688755
4.11548e-05
0.000681809
1.64511e-05
0.000684651
-4.02814e-06
0.000697359
-2.47268e-05
0.000714597
-5.13467e-05
0.000731192
-5.90697e-05
0.000745652
-3.5356e-05
0.000749422
-5.8764e-06
0.000742262
2.4592e-05
0.000732406
5.01943e-05
0.00072148
4.31871e-05
0.000715543
1.56319e-05
0.000720808
-7.33287e-06
0.000737523
-3.08387e-05
0.000760338
-6.09623e-05
0.000783755
-7.14156e-05
0.000806442
-4.87555e-05
0.000819408
-1.9688e-05
0.000822332
1.22065e-05
3.90706e-05
0.000823347
0.000610851
-0.000108495
0.000672773
-0.000180817
0.000737384
-0.000181722
0.000794983
-0.000143837
0.000845914
-9.85527e-05
0.000887881
-7.192e-05
0.000920947
-6.69844e-05
0.000950646
-6.99678e-05
0.00097849
-7.81663e-05
0.00100005
-8.97819e-05
0.00101673
-8.71177e-05
0.00103233
-6.01731e-05
0.00104253
-2.36086e-05
0.00104841
1.30694e-05
0.00105498
3.93933e-05
0.00105842
3.7718e-05
0.00105887
1.59995e-05
0.00106264
-7.79997e-06
0.00107019
-3.22762e-05
0.00107545
-5.66097e-05
0.00107939
-6.301e-05
0.00108599
-4.19546e-05
0.00109039
-1.02804e-05
0.00109311
2.18786e-05
0.00109893
4.43743e-05
0.00110339
3.87268e-05
0.00110611
1.29054e-05
0.00111369
-1.49076e-05
0.00112658
-4.37331e-05
0.00113874
-7.31218e-05
0.00115137
-8.40458e-05
0.0011691
-6.64808e-05
0.00118689
-3.74758e-05
0.00120524
-6.15132e-06
1.59701e-05
0.00122834
0.00102073
-0.000128707
0.00105852
-0.000218604
0.00110194
-0.000225143
0.00114708
-0.000188977
0.00119155
-0.000143021
0.00123056
-0.000110933
0.00126133
-9.77523e-05
0.00128656
-9.51941e-05
0.00130671
-9.83179e-05
0.00131927
-0.000102339
0.00132681
-9.46668e-05
0.00133504
-6.84021e-05
0.00134456
-3.31216e-05
0.0013563
1.32367e-06
0.0013703
2.53933e-05
0.00138103
2.69851e-05
0.00138683
1.02003e-05
0.00139115
-1.21149e-05
0.00139444
-3.55665e-05
0.00139318
-5.53464e-05
0.00138951
-5.93446e-05
0.00138997
-4.2412e-05
0.00139489
-1.52016e-05
0.00140449
1.22735e-05
0.00141873
3.01391e-05
0.00143146
2.59919e-05
0.00144064
3.73152e-06
0.00144995
-2.42229e-05
0.00145987
-5.36485e-05
0.00146696
-8.02172e-05
0.00147408
-9.11649e-05
0.00148807
-8.04627e-05
0.00150901
-5.8424e-05
0.00153757
-3.47088e-05
-1.99939e-05
0.00157354
0.00146183
-0.000131022
0.00147147
-0.000228238
0.00148764
-0.00024132
0.00150972
-0.000211055
0.00153563
-0.000168931
0.00156068
-0.000135979
0.0015807
-0.000117771
0.00159563
-0.000110128
0.00160541
-0.000108101
0.00160914
-0.000106062
0.00160934
-9.48663e-05
0.00161163
-7.06972e-05
0.00161842
-3.9906e-05
0.00162995
-1.02119e-05
0.001645
1.03412e-05
0.00165824
1.37457e-05
0.00166636
2.0789e-06
0.00167048
-1.62285e-05
0.00167066
-3.57487e-05
0.00166621
-5.09002e-05
0.00166049
-5.36174e-05
0.0016591
-4.10227e-05
0.00166397
-2.00723e-05
0.0016753
9.40913e-07
0.00169185
1.35917e-05
0.00170815
9.68809e-06
0.00172089
-9.00287e-06
0.00173125
-3.45907e-05
0.00173956
-6.19566e-05
0.0017451
-8.57545e-05
0.00175154
-9.7602e-05
0.00176509
-9.40131e-05
0.00178777
-8.11054e-05
0.0018204
-6.73396e-05
-6.06777e-05
0.00186108
0.00189443
-0.000117437
0.00187681
-0.000210615
0.00186411
-0.000228621
0.001859
-0.000205944
0.00186124
-0.000171174
0.00186626
-0.000141
0.00187025
-0.000121754
0.00187162
-0.0001115
0.00186972
-0.000106207
0.00186421
-0.000100547
0.0018578
-8.84528e-05
0.00185511
-6.80151e-05
0.00185817
-4.29589e-05
0.00186693
-1.89765e-05
0.00187959
-2.31936e-06
0.0018916
1.73938e-06
0.00189949
-5.8136e-06
0.00190283
-1.95697e-05
0.00190159
-3.45059e-05
0.00189645
-4.57603e-05
0.00189075
-4.79158e-05
0.00188895
-3.9224e-05
0.00189328
-2.44061e-05
0.00190405
-9.82756e-06
0.00191973
-2.09179e-06
0.00193599
-6.56606e-06
0.00194954
-2.25535e-05
0.00196009
-4.51403e-05
0.00196785
-6.97224e-05
0.0019736
-9.15001e-05
0.00198091
-0.000104915
0.0019949
-0.000108004
0.00201802
-0.000104225
0.00205117
-0.000100489
-0.000101484
0.00209198
0.00228548
-9.28985e-05
0.00224569
-0.000170826
0.00220645
-0.000189381
0.00217431
-0.000173806
0.00215105
-0.000147913
0.00213403
-0.000123982
0.00211998
-0.000107698
0.00210675
-9.82672e-05
0.00209319
-9.26521e-05
0.00207933
-8.66888e-05
0.00206733
-7.64513e-05
0.00206014
-6.08204e-05
0.00205911
-4.19351e-05
0.00206384
-2.36991e-05
0.00207239
-1.08781e-05
0.00208125
-7.11478e-06
0.00208737
-1.19376e-05
0.00208964
-2.18379e-05
0.00208794
-3.28094e-05
0.0020832
-4.10155e-05
0.00207819
-4.29086e-05
0.00207647
-3.74972e-05
0.00207991
-2.78537e-05
0.00208884
-1.87549e-05
0.00210196
-1.52082e-05
0.00211611
-2.07234e-05
0.00212858
-3.50185e-05
0.00213846
-5.50167e-05
0.0021459
-7.71626e-05
0.00215219
-9.77939e-05
0.00216046
-0.000113188
0.00217467
-0.00012221
0.00219694
-0.000126493
0.00222822
-0.000131771
-0.000139652
0.00226639
0.00260586
-6.20384e-05
0.00254964
-0.000114607
0.00248837
-0.000128113
0.0024332
-0.000118638
0.00238749
-0.000102204
0.00235059
-8.70741e-05
0.00232005
-7.71577e-05
0.00229374
-7.19655e-05
0.00227033
-6.92376e-05
0.00224961
-6.59698e-05
0.0022328
-5.96431e-05
0.00222163
-4.96447e-05
0.00221673
-3.70418e-05
0.00221724
-2.42015e-05
0.00222138
-1.50269e-05
0.00222655
-1.22784e-05
0.00223025
-1.56408e-05
0.00223122
-2.28084e-05
0.00222921
-3.07951e-05
0.00222502
-3.68297e-05
0.00222082
-3.87025e-05
0.00221915
-3.58344e-05
0.00222146
-3.01603e-05
0.00222803
-2.53237e-05
0.002238
-2.51816e-05
0.00224921
-3.19309e-05
0.00225952
-4.53298e-05
0.00226795
-6.34421e-05
0.0022746
-8.38152e-05
0.00228082
-0.000104014
0.00228915
-0.000121524
0.00230267
-0.000135724
0.00232289
-0.000146715
0.00235067
-0.000159555
-0.000173514
0.00238454
0.00283125
-2.67678e-05
0.00276428
-4.76424e-05
0.00268867
-5.25011e-05
0.00261752
-4.74819e-05
0.00255575
-4.04394e-05
0.00250422
-3.55461e-05
0.00246145
-3.43827e-05
0.00242558
-3.61008e-05
0.00239519
-3.88413e-05
0.00236967
-4.0455e-05
0.00234946
-3.94333e-05
0.00233549
-3.56708e-05
0.0023276
-2.91583e-05
0.00232446
-2.10552e-05
0.00232466
-1.52302e-05
0.00232642
-1.40338e-05
0.00232778
-1.69997e-05
0.00232745
-2.24871e-05
0.00232502
-2.83591e-05
0.0023211
-3.29062e-05
0.00231735
-3.49552e-05
0.00231557
-3.40588e-05
0.00231661
-3.11976e-05
0.00232069
-2.94026e-05
0.00232746
-3.19509e-05
0.00233548
-3.99569e-05
0.00234313
-5.29759e-05
0.00234948
-6.97907e-05
0.00235458
-8.89131e-05
0.00235969
-0.000109125
0.00236682
-0.000128656
0.00237813
-0.000147039
0.00239513
-0.000163711
0.00241849
-0.00018292
-0.000201923
0.0024469
0.00294801
1.02412e-05
0.00287762
2.27464e-05
0.00279548
2.96397e-05
0.00271611
3.18906e-05
0.00264593
2.97393e-05
0.00258666
2.37246e-05
0.00253749
1.47852e-05
0.00249687
4.52154e-06
0.00246334
-5.31102e-06
0.00243601
-1.3129e-05
0.00241461
-1.80353e-05
0.00239902
-2.00799e-05
0.00238874
-1.88728e-05
0.00238286
-1.5178e-05
0.00238021
-1.25805e-05
0.00237939
-1.32123e-05
0.00237883
-1.64409e-05
0.00237736
-2.10177e-05
0.00237454
-2.55428e-05
0.00237075
-2.91089e-05
0.00236697
-3.11739e-05
0.00236439
-3.1482e-05
0.00236395
-3.07615e-05
0.00236605
-3.14983e-05
0.00237021
-3.6111e-05
0.00237522
-4.49662e-05
0.00237986
-5.76151e-05
0.00238355
-7.34814e-05
0.00238643
-9.18e-05
0.00238944
-0.000112133
0.00239408
-0.000133289
0.00240184
-0.000154805
0.00241422
-0.000176093
0.00243209
-0.000200789
-0.000223953
0.00245412
0.00294908
4.61752e-05
0.00288055
9.12841e-05
0.00280008
0.000110105
0.00272176
0.000110212
0.00265205
9.94451e-05
0.00259298
8.2803e-05
0.00254409
6.36692e-05
0.00250408
4.45376e-05
0.00247152
2.72488e-05
0.00244535
1.30407e-05
0.00242481
2.50203e-06
0.00240913
-4.40111e-06
0.002398
-7.74347e-06
0.00239119
-8.36383e-06
0.00238741
-8.80196e-06
0.00238513
-1.09321e-05
0.0023831
-1.44128e-05
0.00238052
-1.84414e-05
0.0023772
-2.22179e-05
0.00237333
-2.52417e-05
0.00236941
-2.72549e-05
0.00236625
-2.83222e-05
0.00236481
-2.93159e-05
0.00236529
-3.19793e-05
0.00236688
-3.76985e-05
0.00236858
-4.66707e-05
0.00236972
-5.87594e-05
0.00237011
-7.38675e-05
0.00237
-9.16853e-05
0.00236992
-0.000112058
0.0023709
-0.000134267
0.00237431
-0.000158217
0.00238125
-0.000183027
0.00239252
-0.00021206
-0.000238726
0.00240729
0.00283441
7.82868e-05
0.00277295
0.000152738
0.00270234
0.000180716
0.00263427
0.000178288
0.00257381
0.000159903
0.00252275
0.000133862
0.00248072
0.000105701
0.00244654
7.87164e-05
0.0024189
5.48907e-05
0.0023967
3.5236e-05
0.00237912
2.00791e-05
0.00236552
9.19888e-06
0.00235561
2.1719e-06
0.00234918
-1.93406e-06
0.00234525
-4.87299e-06
0.00234238
-8.06372e-06
0.00233959
-1.1626e-05
0.00233639
-1.5235e-05
0.00233267
-1.85021e-05
0.00232863
-2.12011e-05
0.00232467
-2.32948e-05
0.00232136
-2.50133e-05
0.00231911
-2.70615e-05
0.00231772
-3.05877e-05
0.00231653
-3.6513e-05
0.00231499
-4.51343e-05
0.00231279
-5.65523e-05
0.00230978
-7.08636e-05
0.00230613
-8.80297e-05
0.00230221
-0.000108138
0.00229876
-0.00013082
0.00229694
-0.000156396
0.00229767
-0.000183754
0.00230159
-0.000215979
-0.000245377
0.00230824
0.00261118
0.00010383
0.0025638
0.00020011
0.00251043
0.000234088
0.0024602
0.000228522
0.00241641
0.00020369
0.00238005
0.00017022
0.00235049
0.000135265
0.00232665
0.000102561
0.0023074
7.41329e-05
0.00229187
5.07692e-05
0.0022794
3.25507e-05
0.00226954
1.90615e-05
0.00226206
9.64347e-06
0.0022568
3.32923e-06
0.00225315
-1.2243e-06
0.0022502
-5.11427e-06
0.00224727
-8.69305e-06
0.002244
-1.19667e-05
0.00224033
-1.48265e-05
0.00223636
-1.72334e-05
0.00223234
-1.92782e-05
0.00222858
-2.12473e-05
0.00222522
-2.37082e-05
0.00222208
-2.74454e-05
0.00221868
-3.31163e-05
0.00221461
-4.10618e-05
0.00220957
-5.15092e-05
0.0022034
-6.46994e-05
0.00219617
-8.0796e-05
0.00218813
-0.000100096
0.00217984
-0.000122527
0.00217213
-0.000148695
0.00216582
-0.000177441
0.00216156
-0.000211715
-0.000243089
0.00215927
0.00229301
0.000120838
0.00226463
0.000228493
0.00223537
0.000263344
0.00220991
0.000253987
0.00218893
0.00022467
0.00217238
0.000186766
0.00215934
0.000148303
0.00214893
0.000112975
0.00214037
8.26887e-05
0.00213316
5.79785e-05
0.00212702
3.86979e-05
0.00212181
2.42647e-05
0.00211756
1.3896e-05
0.00211425
6.64359e-06
0.00211159
1.42843e-06
0.00210912
-2.64232e-06
0.00210645
-6.01799e-06
0.00210337
-8.88744e-06
0.00209986
-1.13152e-05
0.002096
-1.33776e-05
0.00209195
-1.52271e-05
0.00208785
-1.71421e-05
0.0020837
-1.95597e-05
0.00207928
-2.30308e-05
0.00207422
-2.80495e-05
0.00206812
-3.49656e-05
0.00206069
-4.40771e-05
0.0020517
-5.57151e-05
0.0020411
-7.01882e-05
0.00202896
-8.79639e-05
0.00201566
-0.000109226
0.00200178
-0.000134814
0.00198805
-0.00016371
0.0019751
-0.000198761
-0.000231271
0.00196328
0.00190267
0.00012619
0.0018986
0.000232555
0.00189804
0.000263912
0.00190072
0.000251306
0.00190542
0.000219964
0.0019108
0.000181387
0.00191585
0.000143259
0.00191991
0.000108914
0.00192269
7.99014e-05
0.0019242
5.64721e-05
0.00192461
3.82871e-05
0.00192421
2.46654e-05
0.00192331
1.47955e-05
0.00192215
7.80214e-06
0.00192078
2.80226e-06
0.00191907
-9.3205e-07
0.0019169
-3.84829e-06
0.00191421
-6.20186e-06
0.00191103
-8.13529e-06
0.00190743
-9.77383e-06
0.00190349
-1.12825e-05
0.00189924
-1.29005e-05
0.00189464
-1.49557e-05
0.00188945
-1.78383e-05
0.00188332
-2.19209e-05
0.00187588
-2.75227e-05
0.00186676
-3.49563e-05
0.00185563
-4.45923e-05
0.00184227
-5.68302e-05
0.00182657
-7.22548e-05
0.00180862
-9.12785e-05
0.00178873
-0.00011493
0.00176757
-0.000142549
0.00174569
-0.000176872
-0.000209586
0.001724
0.00146853
0.000117183
0.0014914
0.000209685
0.00152065
0.000234656
0.0015516
0.000220359
0.00158133
0.000190227
0.00160762
0.000155105
0.00162949
0.000121385
0.00164673
9.16724e-05
0.00165964
6.6997e-05
0.00166878
4.733e-05
0.00167486
3.22094e-05
0.00167857
2.09474e-05
0.00168057
1.27999e-05
0.00168135
7.02604e-06
0.00168121
2.93508e-06
0.00168032
-3.63055e-08
0.00167874
-2.26794e-06
0.00167654
-4.00191e-06
0.00167379
-5.38848e-06
0.00167057
-6.55093e-06
0.00166692
-7.63256e-06
0.00166283
-8.81613e-06
0.00165821
-1.03318e-05
0.00165282
-1.24447e-05
0.00164632
-1.54226e-05
0.00163832
-1.95254e-05
0.0016284
-2.50344e-05
0.00161611
-3.23029e-05
0.00160104
-4.17563e-05
0.0015828
-5.40183e-05
0.0015612
-6.9684e-05
0.00153618
-8.99054e-05
0.00150822
-0.000114593
0.00147768
-0.000146328
-0.000178124
0.00144622
0.001024
9.37015e-05
0.00107132
0.000162362
0.00112727
0.00017871
0.00118283
0.000164795
0.001233
0.000140061
0.00127549
0.000112612
0.00130981
8.70654e-05
0.00133641
6.50723e-05
0.00135625
4.71541e-05
0.00137049
3.30962e-05
0.00138027
2.24297e-05
0.00138664
1.45698e-05
0.00139051
8.93053e-06
0.00139258
4.96442e-06
0.00139332
2.18859e-06
0.00139307
2.16661e-07
0.00139202
-1.22164e-06
0.00139033
-2.30726e-06
0.00138809
-3.15203e-06
0.00138539
-3.84481e-06
0.00138224
-4.48927e-06
0.00137863
-5.2064e-06
0.00137444
-6.13903e-06
0.00136944
-7.44796e-06
0.00136332
-9.30386e-06
0.00135569
-1.18873e-05
0.00134606
-1.54107e-05
0.00133391
-2.01542e-05
0.00131865
-2.64945e-05
0.00129962
-3.49872e-05
0.00127625
-4.63149e-05
0.00124794
-6.15968e-05
0.00121481
-8.14571e-05
0.00117663
-0.00010815
-0.000137516
0.00113602
0.000609934
5.79861e-05
0.00067435
9.79469e-05
0.000746949
0.000106111
0.000815882
9.58615e-05
0.000876012
7.99307e-05
0.000925494
6.31309e-05
0.000964537
4.8022e-05
0.000994248
3.53614e-05
0.00101613
2.52757e-05
0.00103171
1.75124e-05
0.00104241
1.17262e-05
0.00104945
7.53271e-06
0.00105381
4.56912e-06
0.00105626
2.51465e-06
0.00105735
1.1008e-06
0.00105745
1.18916e-07
0.00105681
-5.80146e-07
0.00105559
-1.08836e-06
0.0010539
-1.4692e-06
0.00105183
-1.77403e-06
0.0010494
-2.05754e-06
0.00104657
-2.37926e-06
0.00104324
-2.808e-06
0.00103922
-3.42077e-06
0.00103422
-4.30356e-06
0.00102788
-5.55225e-06
0.00101976
-7.28938e-06
0.00100929
-9.68078e-06
0.000995777
-1.29851e-05
0.000978364
-1.7574e-05
0.000956113
-2.40643e-05
0.000927814
-3.3298e-05
0.00089289
-4.65328e-05
0.000850098
-6.53583e-05
-8.97445e-05
0.000802327
0.00026963
1.93749e-05
0.000334192
3.33851e-05
0.000404557
3.57451e-05
0.00046866
3.17593e-05
0.000522641
2.59492e-05
0.000565592
2.01806e-05
0.000598581
1.50321e-05
0.000623147
1.07962e-05
0.000640898
7.52411e-06
0.000653332
5.07852e-06
0.000661749
3.30881e-06
0.000667218
2.06437e-06
0.000670577
1.20974e-06
0.000672459
6.33206e-07
0.000673312
2.47072e-07
0.000673447
-1.57817e-08
0.00067306
-1.92961e-07
0.000672278
-3.06823e-07
0.000671195
-3.85479e-07
0.000669875
-4.54072e-07
0.000668337
-5.201e-07
0.000666552
-5.94228e-07
0.000664439
-6.94531e-07
0.000661862
-8.44271e-07
0.000658628
-1.06932e-06
0.000654473
-1.3969e-06
0.000649052
-1.86876e-06
0.000641908
-2.5365e-06
0.000632438
-3.51534e-06
0.000619795
-4.93072e-06
0.0006029
-7.16915e-06
0.000580093
-1.04912e-05
0.000549721
-1.61609e-05
0.000508029
-2.36659e-05
-3.82749e-05
0.000456559
4.78937e-05
8.12788e-05
0.000117024
0.000148783
0.000174732
0.000194913
0.000209945
0.000220741
0.000228265
0.000233344
0.000236653
0.000238717
0.000239927
0.00024056
0.000240807
0.000240791
0.000240598
0.000240291
0.000239906
0.000239452
0.000238932
0.000238338
0.000237643
0.000236799
0.000235729
0.000234333
0.000232464
0.000229927
0.000226412
0.000221481
0.000214312
0.000203821
0.00018766
0.000163994
0.000125719
0.000299924
4.10966e-05
0.000284835
1.50891e-05
0.000282419
2.41597e-06
0.000292904
-1.04849e-05
0.000330292
-3.73888e-05
0.000376031
-4.57381e-05
0.000394598
-1.85676e-05
0.000392377
2.22062e-06
0.000367899
2.44782e-05
0.000313008
5.4891e-05
0.000267171
4.58375e-05
0.000248828
1.83431e-05
0.000239265
9.56311e-06
0.00023522
4.04497e-06
9.90037e-07
0.000798485
6.59586e-05
0.000779299
3.42745e-05
0.000772425
9.29027e-06
0.000778034
-1.60937e-05
0.000790887
-5.02424e-05
0.000805016
-5.98671e-05
0.000815569
-2.91204e-05
0.000809815
7.97492e-06
0.000785809
4.8484e-05
0.000752994
8.77063e-05
0.000717437
8.13942e-05
0.000687321
4.84586e-05
0.00066603
3.08549e-05
0.000651354
1.87208e-05
1.20466e-05
0.00121481
7.94943e-05
0.0011989
5.01825e-05
0.00118822
1.99703e-05
0.0011833
-1.11699e-05
0.00117729
-4.42364e-05
0.0011715
-5.40742e-05
0.00116849
-2.61161e-05
0.00115892
1.75497e-05
0.00114163
6.57731e-05
0.00112249
0.000106848
0.0010972
0.000106685
0.00106662
7.90402e-05
0.00103906
5.84133e-05
0.00101539
4.23912e-05
3.25661e-05
0.00156523
8.77999e-05
0.00155191
6.34986e-05
0.00153859
3.32948e-05
0.00152561
1.81358e-06
0.00150835
-2.69773e-05
0.00148946
-3.51912e-05
0.00147519
-1.1846e-05
0.00146252
3.0222e-05
0.00145014
7.81531e-05
0.00143824
0.000118749
0.00141868
0.000126247
0.00139002
0.000107701
0.00135979
8.86441e-05
0.00133
7.21779e-05
6.02497e-05
0.00185361
9.52766e-05
0.00184156
7.55412e-05
0.00182667
4.81932e-05
0.00180874
1.97375e-05
0.00178589
-4.12651e-06
0.00176133
-1.06351e-05
0.00174128
8.20635e-06
0.00172611
4.53959e-05
0.00171469
8.95755e-05
0.00170517
0.000128261
0.00168889
0.000142534
0.0016624
0.000134185
0.00163135
0.000119695
0.00159796
0.000105574
9.28549e-05
0.00208302
0.000104231
0.00207097
8.75939e-05
0.00205549
6.36717e-05
0.00203582
3.941e-05
0.00201163
2.00617e-05
0.00198593
1.50648e-05
0.00196398
3.01579e-05
0.00194757
6.18087e-05
0.00193598
0.00010116
0.00192662
0.000137624
0.00191196
0.000157192
0.00188765
0.000158499
0.00185687
0.000150474
0.00182181
0.000140635
0.000128373
0.00225546
0.000115157
0.00224294
0.000100113
0.00222778
7.88347e-05
0.00220875
5.84397e-05
0.0021861
4.27151e-05
0.00216224
3.89191e-05
0.00214125
5.11515e-05
0.00212515
7.79019e-05
0.00211359
0.000112723
0.00210398
0.00014724
0.00209033
0.000170836
0.00206826
0.000180574
0.00203887
0.00017986
0.00200383
0.000175677
0.000164995
0.00237233
0.000127362
0.00235977
0.000112678
0.00234582
9.27833e-05
0.002329
7.52553e-05
0.00230962
6.20969e-05
0.0022894
5.91374e-05
0.0022713
6.92546e-05
0.00225709
9.21136e-05
0.00224658
0.000123231
0.00223753
0.000156286
0.00222531
0.000183063
0.00220588
0.000199999
0.00217905
0.000206687
0.00214579
0.000208946
0.00020085
0.00243464
0.000139627
0.00242291
0.000124408
0.00241106
0.000104632
0.00239751
8.88081e-05
0.00238244
7.71677e-05
0.00236694
7.46302e-05
0.00235306
8.31365e-05
0.00234214
0.000103037
0.00233404
0.000131328
0.0023269
0.000163426
0.0023171
0.000192867
0.0023011
0.000215992
0.00227799
0.000229798
0.00224809
0.000238853
0.000234367
0.00244326
0.000150493
0.00243347
0.000134195
0.00242458
0.000113523
0.00241501
9.83749e-05
0.00240484
8.73355e-05
0.00239469
8.47851e-05
0.0023859
9.19314e-05
0.0023794
0.000109531
0.00237507
0.000135663
0.00237132
0.000167168
0.00236526
0.000198935
0.00235374
0.000227507
0.00233536
0.000248184
0.00231034
0.000263872
0.000263287
0.00239926
0.000158518
0.00239254
0.000140921
0.00238737
0.000118686
0.00238229
0.00010346
0.00237731
9.23152e-05
0.00237275
8.93447e-05
0.00236951
9.51725e-05
0.00236825
0.00011079
0.00236882
0.000135089
0.0023699
0.000166088
0.00236906
0.000199776
0.00236355
0.000233024
0.00235126
0.000260465
0.00233265
0.000282482
0.00028547
0.00230426
0.000162496
0.00230155
0.000143629
0.00230071
0.000119522
0.00230039
0.000103785
0.00230061
9.20921e-05
0.00230158
8.83735e-05
0.00230396
9.27991e-05
0.00230827
0.000106476
0.00231448
0.000128875
0.00232148
0.00015909
0.0023272
0.000194053
0.00232914
0.000231088
0.00232495
0.000264658
0.00231418
0.000293249
0.000300843
0.00216033
0.000161431
0.00216242
0.00014154
0.00216631
0.000115637
0.00217079
9.93002e-05
0.00217595
8.69323e-05
0.00218202
8.23078e-05
0.00218962
8.51957e-05
0.00219942
9.66783e-05
0.00221146
0.000116837
0.00222491
0.000145634
0.0022381
0.000180864
0.00224862
0.000220569
0.00225379
0.000259494
0.00225268
0.000294354
0.000307826
0.00197021
0.000154499
0.00197769
0.000134061
0.00198646
0.000106865
0.00199557
9.01934e-05
0.00200515
7.73499e-05
0.00201555
7.19068e-05
0.00202763
7.31179e-05
0.00204212
8.2191e-05
0.00205925
9.96993e-05
0.00207908
0.000125805
0.00210021
0.000159734
0.00212035
0.000200428
0.0021363
0.000243552
0.0021463
0.000284351
0.000304288
0.0017374
0.000141099
0.00175066
0.000120804
0.00176421
9.33107e-05
0.00177749
7.69144e-05
0.00179073
6.41062e-05
0.00180459
5.80477e-05
0.00181978
5.79315e-05
0.00183714
6.48332e-05
0.00185794
7.88985e-05
0.00188313
0.000100608
0.00191168
0.000131187
0.00194168
0.000170425
0.00196948
0.000215751
0.00199256
0.000261278
0.000288142
0.00146642
0.000120898
0.00148553
0.000101693
0.00150332
7.55206e-05
0.00151983
6.0406e-05
0.00153531
4.862e-05
0.00155078
4.25826e-05
0.00156736
4.13519e-05
0.00158657
4.56233e-05
0.00160967
5.58007e-05
0.00163783
7.24469e-05
0.00167154
9.74797e-05
0.00171014
0.000131819
0.00175014
0.000175758
0.00178788
0.000223531
0.000257595
0.00116293
9.39885e-05
0.00118763
7.69985e-05
0.00120869
5.44527e-05
0.00122718
4.19173e-05
0.00124343
3.23702e-05
0.00125885
2.71674e-05
0.00127479
2.54116e-05
0.00129305
2.73581e-05
0.00131537
3.34879e-05
0.00134348
4.43283e-05
0.00137895
6.2014e-05
0.00142282
8.79454e-05
0.00147284
0.000125738
0.00152567
0.000170703
0.000210566
0.000834772
6.15433e-05
0.000863496
4.82751e-05
0.000885856
3.2092e-05
0.000904399
2.33743e-05
0.000919627
1.71426e-05
0.0009332
1.35939e-05
0.000946523
1.20887e-05
0.000961358
1.25237e-05
0.000979605
1.52404e-05
0.00100349
2.04439e-05
0.00103546
3.0039e-05
0.00107846
4.49541e-05
0.00113305
7.11415e-05
0.00119831
0.000105444
0.000146026
0.000491953
2.61497e-05
0.000521605
1.86227e-05
0.000541806
1.18905e-05
0.000557144
8.03702e-06
0.000568788
5.49854e-06
0.000578419
3.96207e-06
0.000587279
3.22899e-06
0.000596729
3.07358e-06
0.000608295
3.67509e-06
0.000623876
4.86262e-06
0.000646091
7.82365e-06
0.000678847
1.21979e-05
0.000726363
2.36264e-05
0.000793113
3.8694e-05
6.8346e-05
0.000151869
0.000170492
0.000182382
0.000190419
0.000195918
0.00019988
0.000203109
0.000206182
0.000209857
0.00021472
0.000222544
0.000234742
0.000258368
0.000297062
)
;

boundaryField
{
    inlet
    {
        type            calculated;
        value           nonuniform List<scalar> 
20
(
-2.85187e-05
-0.000231019
-0.000574219
-0.00100052
-0.00145952
-0.00190802
-0.00231002
-0.00263672
-0.00286652
-0.00298502
-0.00298502
-0.00286652
-0.00263672
-0.00231002
-0.00190802
-0.00145952
-0.00100052
-0.000574219
-0.000231019
-2.85188e-05
)
;
    }
    outlet
    {
        type            calculated;
        value           nonuniform List<scalar> 
20
(
0.00023423
0.000640297
0.000994868
0.00130232
0.00156535
0.00178629
0.00196721
0.00210993
0.00221457
0.00228142
0.00231047
0.00229881
0.0022457
0.00214984
0.0020087
0.00181843
0.0015727
0.00126285
0.000870793
0.000365408
)
;
    }
    top
    {
        type            calculated;
        value           uniform 0;
    }
    bottom
    {
        type            calculated;
        value           uniform 0;
    }
    frontAndBack
    {
        type            empty;
        value           nonuniform List<scalar> 0();
    }
}


// ************************************************************************* //
