/*--------------------------------*- C++ -*----------------------------------*\
  =========                 |
  \\      /  F ield         | OpenFOAM: The Open Source CFD Toolbox
   \\    /   O peration     | Website:  https://openfoam.org
    \\  /    A nd           | Version:  8
     \\/     M anipulation  |
\*---------------------------------------------------------------------------*/
FoamFile
{
    version     2.0;
    format      ascii;
    class       volScalarField;
    location    "10";
    object      T;
}
// * * * * * * * * * * * * * * * * * * * * * * * * * * * * * * * * * * * * * //

dimensions      [0 0 0 1 0 0 0];

internalField   nonuniform List<scalar> 
1000
(
337.303
356.603
350.997
322.202
249.041
81.5404
44.614
36.2581
42.8029
77.3454
238.054
302.953
319.654
302.487
237.181
76.0711
40.5368
32.8922
39.892
74.6566
234.082
298.581
315.535
298.915
234.507
74.608
39.2715
31.7348
38.7873
73.5362
232.289
296.482
313.416
296.899
232.708
309.933
314.669
301.985
270.327
215.672
141.159
105.563
93.8679
100.494
129.952
194.671
235.9
248.843
234.6
191.966
125.577
93.6695
84.0335
91.979
122.088
186.398
227.596
241.07
227.813
186.445
121.317
89.9606
80.6167
88.7376
118.836
182.723
223.661
237.142
224.127
183.161
299.967
294.304
278.695
251.727
214.142
172.565
145.742
134.601
137.777
155.46
185.147
207.379
214.555
204.979
180.14
147.418
126.002
118.209
123.479
142.329
172.569
195.418
203.526
195.18
171.716
140.261
119.701
112.423
117.985
136.892
166.994
189.773
197.99
189.94
166.885
295.823
285.047
268.983
246.872
220.122
193.213
173.503
163.49
163.232
171.681
185.315
196.099
199.029
192.497
177.863
159.889
146.359
140.557
143.163
153.545
168.551
180.574
184.827
179.732
166.553
149.889
137.367
132.27
135.334
145.965
161.084
173.232
177.706
172.94
160.144
294.225
281.549
266.188
247.852
227.681
208.311
193.159
184.045
181.23
183.714
188.993
193.169
193.333
188.396
179.196
168.4
159.673
155.282
155.93
160.988
168.28
174.208
176.037
172.73
165.081
155.667
148.072
144.549
145.832
151.336
158.956
165.181
167.337
164.394
157.111
293.841
280.939
266.72
251.155
235.044
219.914
207.529
198.997
194.512
193.369
194.007
194.351
192.747
188.514
182.099
174.933
168.88
165.293
164.656
166.547
169.664
172.15
172.491
170.064
165.308
159.615
154.808
152.233
152.396
154.913
158.537
161.47
162.235
160.217
155.831
294.013
281.666
268.677
255.154
241.647
229.06
218.368
210.215
204.716
201.419
199.392
197.478
194.728
190.722
185.673
180.333
175.68
172.474
171.01
171.03
171.792
172.297
171.706
169.656
166.375
162.603
159.303
157.238
156.719
157.521
158.941
160.02
159.944
158.356
155.468
294.405
282.908
271.082
259.094
247.338
236.371
226.76
218.883
212.804
208.249
204.669
201.4
197.892
193.879
189.451
184.994
181.019
177.943
175.928
174.825
174.212
173.541
172.344
170.407
167.843
165.043
162.52
160.697
159.753
159.563
159.735
159.748
159.151
157.735
155.603
294.846
284.245
273.449
262.644
252.125
242.255
233.382
225.734
219.354
214.079
209.589
205.497
201.477
197.36
193.171
189.101
185.414
182.329
179.93
178.127
176.681
175.285
173.673
171.718
169.472
167.137
164.986
163.251
162.028
161.248
160.694
160.076
159.144
157.772
156.008
295.255
285.479
275.561
265.685
256.08
246.997
238.663
231.227
224.719
219.048
214.028
209.433
205.066
200.816
196.679
192.743
189.139
185.978
183.297
181.039
179.065
177.2
175.29
173.256
171.119
168.98
166.983
165.25
163.832
162.688
161.696
160.692
159.535
158.148
156.549
295.6
286.529
277.338
268.198
259.292
250.803
242.89
235.655
229.126
223.255
217.936
213.035
208.433
204.055
199.886
195.961
192.341
189.076
186.179
183.61
181.285
179.102
176.968
174.833
172.7
170.618
168.659
166.885
165.321
163.941
162.673
161.423
160.11
158.684
157.148
295.873
287.372
278.769
270.214
261.856
253.834
246.263
239.22
232.732
226.778
221.299
216.217
211.459
206.973
202.743
198.777
195.098
191.725
188.657
185.866
183.297
180.888
178.581
176.341
174.163
172.068
170.09
168.257
166.578
165.036
163.587
162.174
160.749
159.278
157.757
296.075
288.017
279.879
271.787
263.862
256.213
248.927
242.065
235.653
229.686
224.133
218.95
214.091
209.522
205.227
201.202
197.452
193.979
190.777
187.821
185.076
182.5
180.056
177.718
175.477
173.338
171.315
169.418
167.647
165.989
164.416
162.891
161.384
159.871
158.344
296.215
288.486
280.705
272.976
265.394
258.046
250.999
244.303
237.982
232.041
226.465
221.231
216.312
211.683
207.332
203.249
199.431
195.873
192.563
189.484
186.608
183.907
181.355
178.93
176.622
174.43
172.354
170.395
168.551
166.808
165.146
163.544
161.977
160.429
158.891
296.302
288.804
281.29
273.839
266.527
259.42
252.572
246.023
239.796
233.9
228.333
223.08
218.127
213.459
209.064
204.932
201.056
197.428
194.036
190.864
187.89
185.095
182.457
179.959
177.59
175.345
173.218
171.206
169.302
167.496
165.772
164.114
162.506
160.935
159.388
296.347
289.001
281.677
274.436
267.331
260.414
253.727
247.303
241.164
235.321
229.776
224.524
219.557
214.865
210.439
206.27
202.349
198.667
195.213
191.971
188.925
186.059
183.354
180.798
178.378
176.086
173.915
171.858
169.908
168.056
166.289
164.594
162.96
161.375
159.829
296.36
289.104
281.911
274.819
267.868
261.096
254.535
248.213
242.149
236.356
230.839
225.598
220.628
215.924
211.479
207.283
203.33
199.609
196.11
192.818
189.721
186.802
184.049
181.448
178.987
176.658
174.452
172.361
170.377
168.492
166.696
164.979
163.331
161.745
160.21
296.353
289.143
282.031
275.04
268.196
261.527
255.058
248.813
242.809
237.058
231.568
226.341
221.375
216.666
212.21
207.999
204.024
200.277
196.747
193.422
190.289
187.336
184.548
181.915
179.425
177.069
174.837
172.722
170.715
168.808
166.994
165.265
163.616
162.04
160.53
296.338
289.144
282.077
275.146
268.368
261.763
255.354
249.16
243.197
237.477
232.008
226.793
221.833
217.124
212.663
208.443
204.457
200.695
197.147
193.802
190.648
187.673
184.864
182.211
179.703
177.329
175.081
172.95
170.929
169.01
167.187
165.455
163.81
162.252
160.782
296.326
289.134
282.084
275.179
268.431
261.857
255.477
249.308
243.366
237.662
232.204
226.997
222.041
217.334
212.872
208.649
204.658
200.889
197.333
193.979
190.815
187.831
185.013
182.35
179.833
177.451
175.196
173.058
171.03
169.106
167.28
165.547
163.908
162.368
160.945
73.3799
37.5101
29.5458
35.7075
69.1461
238.881
304.52
321.644
307.019
243.532
61.8159
26.3488
16.0407
12.2118
10.703
118.572
86.1051
75.6692
82.85
113.15
184.244
229.509
244.693
231.262
184.756
102.386
62.775
44.1523
35.283
31.3834
135.864
114.292
105.779
110.518
130.066
164.519
191.24
201.152
191.502
161.607
116.966
85.3404
66.181
55.409
50.2043
143.827
130.511
124.296
126.659
137.848
155.546
170.45
176.013
169.243
150.09
122.991
99.4882
82.7632
72.1415
66.5732
147.989
139.835
135.421
136.106
141.907
150.979
158.848
161.441
156.457
143.783
126.088
108.845
95.1517
85.6832
80.3614
150.403
145.237
142.006
141.669
144.25
148.598
152.349
153.053
149.12
140.336
128.167
115.47
104.545
96.5024
91.7337
151.962
148.463
145.947
145.024
145.739
147.43
148.784
148.336
145.032
138.631
129.905
120.444
111.83
105.149
101.006
153.09
150.498
148.392
147.142
146.794
146.976
146.945
145.82
142.917
138.021
131.529
124.363
117.593
112.118
108.573
153.997
151.885
150.006
148.573
147.625
146.954
146.131
144.628
142.006
138.094
133.096
127.563
122.218
117.763
114.768
154.783
152.917
151.158
149.624
148.34
147.191
145.927
144.231
141.823
138.579
134.605
130.241
125.98
122.351
119.836
155.493
153.749
152.05
150.46
148.993
147.582
146.082
144.302
142.067
139.292
136.036
132.517
129.073
126.1
123.986
156.147
154.459
152.79
151.17
149.605
148.057
146.44
144.639
142.548
140.113
137.37
134.465
131.635
129.175
127.391
156.75
155.088
153.433
151.799
150.186
148.571
146.903
145.116
143.146
140.961
138.591
136.136
133.767
131.706
130.191
157.303
155.655
154.009
152.371
150.738
149.094
147.413
145.654
143.784
141.787
139.689
137.565
135.543
133.791
132.494
157.805
156.169
154.533
152.898
151.259
149.609
147.932
146.206
144.416
142.559
140.66
138.779
137.017
135.502
134.382
158.258
156.638
155.015
153.388
151.753
150.106
148.439
146.745
145.017
143.262
141.505
139.8
138.228
136.894
135.918
158.664
157.067
155.463
153.847
152.22
150.581
148.927
147.257
145.573
143.889
142.23
140.645
139.206
138.006
137.146
159.028
157.466
155.885
154.285
152.668
151.036
149.392
147.738
146.083
144.442
142.843
141.332
139.978
138.866
138.095
159.358
157.847
156.295
154.712
153.104
151.478
149.839
148.194
146.552
144.931
143.359
141.882
140.564
139.493
138.778
159.669
158.229
156.709
155.141
153.54
151.916
150.278
148.633
146.991
145.37
143.798
142.317
140.991
139.906
139.19
)
;

boundaryField
{
    inlet
    {
        type            fixedValue;
        value           uniform 300;
    }
    outlet
    {
        type            inletOutlet;
        inletValue      uniform 300;
        value           nonuniform List<scalar> 
20
(
10.703
31.3834
50.2043
66.5732
80.3614
91.7337
101.006
108.573
114.768
119.836
123.986
127.391
130.191
132.494
134.382
135.918
137.146
138.095
138.778
139.19
)
;
    }
    top
    {
        type            zeroGradient;
    }
    bottom
    {
        type            codedMixed;
        refValue        nonuniform List<scalar> 
50
(
400
400
400
400
400
0
0
0
0
0
400
400
400
400
400
0
0
0
0
0
400
400
400
400
400
0
0
0
0
0
400
400
400
400
400
0
0
0
0
0
400
400
400
400
400
0
0
0
0
0
)
;
        refGradient     uniform 0;
        valueFraction   uniform 1;
        value           nonuniform List<scalar> 
50
(
400
400
400
400
400
0
0
0
0
0
400
400
400
400
400
0
0
0
0
0
400
400
400
400
400
0
0
0
0
0
400
400
400
400
400
0
0
0
0
0
400
400
400
400
400
0
0
0
0
0
)
;
        name            atmBoundaryLayerTemperature;
        code            #{
        const fvPatch & patch = this->patch();
        const vectorField& Cf=patch.Cf();
       
        forAll (Cf ,faceI)
        {
        	scalar x=Cf[faceI].x();
        	if((Foam::sin((constant::mathematical::pi*x)/0.1))>0)
        	{ 
        	this->refValue()[faceI]=  400;
        	this->refGrad()[faceI] = 0;//Zero;
        	this->valueFraction()[faceI] = 1.0;
        	}
        	else { 
        	this->refValue()[faceI]=  0;
        	this->refGrad()[faceI] = 0;//Zero;
        	this->valueFraction()[faceI] = 1.0;
        	}
        	}
        #};
    }
    frontAndBack
    {
        type            empty;
    }
}


// ************************************************************************* //
