/*--------------------------------*- C++ -*----------------------------------*\
  =========                 |
  \\      /  F ield         | OpenFOAM: The Open Source CFD Toolbox
   \\    /   O peration     | Website:  https://openfoam.org
    \\  /    A nd           | Version:  8
     \\/     M anipulation  |
\*---------------------------------------------------------------------------*/
FoamFile
{
    version     2.0;
    format      ascii;
    class       volVectorField;
    location    "10";
    object      U;
}
// * * * * * * * * * * * * * * * * * * * * * * * * * * * * * * * * * * * * * //

dimensions      [0 1 -1 0 0 0 0];

internalField   nonuniform List<vector> 
1000
(
(0.0217886 -0.00441512 0)
(0.0367377 -0.00552877 0)
(0.0654696 -0.00521621 0)
(0.0838615 -0.0019174 0)
(0.0975161 0.00653626 0)
(0.0909014 0.00471735 0)
(0.0966954 -0.000174605 0)
(0.100774 -0.00126152 0)
(0.110797 -0.00283436 0)
(0.119131 -0.0107403 0)
(0.150288 -0.0175927 0)
(0.163108 -0.00847328 0)
(0.171888 -0.000598646 0)
(0.167814 0.0076845 0)
(0.158647 0.0174773 0)
(0.130037 0.0107225 0)
(0.12628 0.00219101 0)
(0.12225 -7.01711e-05 0)
(0.127499 -0.00240634 0)
(0.132446 -0.0112908 0)
(0.163628 -0.0185051 0)
(0.175146 -0.00868883 0)
(0.182715 -0.000296229 0)
(0.177249 0.00831968 0)
(0.167107 0.0184773 0)
(0.136681 0.0113694 0)
(0.132802 0.00238122 0)
(0.128822 -0.000108226 0)
(0.134906 -0.0026874 0)
(0.140979 -0.0121676 0)
(0.175298 -0.0200724 0)
(0.189086 -0.00982525 0)
(0.199594 -0.000917151 0)
(0.195444 0.00894542 0)
(0.18717 0.0201527 0)
(0.125463 -0.0245421 0)
(0.152363 -0.0419549 0)
(0.193764 -0.0412297 0)
(0.223966 -0.028917 0)
(0.249185 -0.0123298 0)
(0.263964 -0.00513806 0)
(0.27833 -0.0089361 0)
(0.289734 -0.0126585 0)
(0.304998 -0.0176098 0)
(0.318991 -0.0273226 0)
(0.335697 -0.0282113 0)
(0.346942 -0.016273 0)
(0.356055 -0.00418022 0)
(0.355673 0.00867189 0)
(0.353092 0.0217721 0)
(0.345849 0.0199234 0)
(0.342277 0.00747438 0)
(0.33989 -0.00115679 0)
(0.345156 -0.00983047 0)
(0.351571 -0.023032 0)
(0.362491 -0.025744 0)
(0.369651 -0.013804 0)
(0.375844 -0.00185917 0)
(0.373401 0.0106273 0)
(0.369846 0.0235722 0)
(0.362022 0.0210447 0)
(0.3588 0.00745809 0)
(0.357122 -0.00201396 0)
(0.364116 -0.0116713 0)
(0.372702 -0.0262278 0)
(0.387109 -0.029868 0)
(0.3976 -0.0179917 0)
(0.408806 -0.00589003 0)
(0.410057 0.00771552 0)
(0.413984 0.0216903 0)
(0.294045 -0.0467677 0)
(0.318486 -0.0770484 0)
(0.353687 -0.0762405 0)
(0.383807 -0.0578198 0)
(0.411435 -0.0360277 0)
(0.434452 -0.0249065 0)
(0.453076 -0.0248702 0)
(0.467916 -0.0276046 0)
(0.482841 -0.0327347 0)
(0.495304 -0.0406873 0)
(0.504594 -0.0410459 0)
(0.512511 -0.0274753 0)
(0.519814 -0.00920622 0)
(0.52262 0.00943827 0)
(0.526283 0.023096 0)
(0.528537 0.0210901 0)
(0.529465 0.00898277 0)
(0.529558 -0.00284948 0)
(0.533215 -0.0148852 0)
(0.536606 -0.0281495 0)
(0.538673 -0.0321798 0)
(0.541161 -0.0206752 0)
(0.544813 -0.00397998 0)
(0.545483 0.013106 0)
(0.548135 0.0254964 0)
(0.550612 0.0219918 0)
(0.552364 0.00816994 0)
(0.55391 -0.00530247 0)
(0.559938 -0.0191513 0)
(0.566238 -0.0345441 0)
(0.572353 -0.0403066 0)
(0.579422 -0.0298343 0)
(0.5898 -0.0138027 0)
(0.59658 0.00354318 0)
(0.610008 0.0162183 0)
(0.502854 -0.0614332 0)
(0.518765 -0.103298 0)
(0.539598 -0.104978 0)
(0.562299 -0.0857604 0)
(0.584997 -0.0623092 0)
(0.606486 -0.046973 0)
(0.623899 -0.0421109 0)
(0.637412 -0.0423028 0)
(0.649182 -0.0453042 0)
(0.657331 -0.0490643 0)
(0.661814 -0.0462457 0)
(0.665207 -0.0328022 0)
(0.669896 -0.0144155 0)
(0.674638 0.00372033 0)
(0.681939 0.0164432 0)
(0.688276 0.0166483 0)
(0.692518 0.00698546 0)
(0.694378 -0.00495432 0)
(0.696788 -0.0173803 0)
(0.697464 -0.0284904 0)
(0.695626 -0.0309664 0)
(0.694107 -0.0213731 0)
(0.695893 -0.00632914 0)
(0.699001 0.00886128 0)
(0.705756 0.0190215 0)
(0.712882 0.0167726 0)
(0.718359 0.00472999 0)
(0.722329 -0.00960021 0)
(0.727653 -0.024568 0)
(0.732029 -0.0386039 0)
(0.734849 -0.0439092 0)
(0.739384 -0.0367657 0)
(0.748903 -0.0236715 0)
(0.759708 -0.00955672 0)
(0.778947 -0.000146088 0)
(0.72898 -0.0670428 0)
(0.732851 -0.115213 0)
(0.738755 -0.120177 0)
(0.748856 -0.103221 0)
(0.761013 -0.0807073 0)
(0.774562 -0.0639579 0)
(0.786029 -0.0556467 0)
(0.79464 -0.0528757 0)
(0.800973 -0.0529934 0)
(0.804327 -0.0532467 0)
(0.804787 -0.0483122 0)
(0.804656 -0.0354837 0)
(0.807001 -0.0186884 0)
(0.811446 -0.00243565 0)
(0.81862 0.00885885 0)
(0.826346 0.0102526 0)
(0.831792 0.00317778 0)
(0.834562 -0.00715728 0)
(0.835923 -0.0181104 0)
(0.834633 -0.0267858 0)
(0.831527 -0.0283275 0)
(0.829089 -0.0209784 0)
(0.830038 -0.00886281 0)
(0.833962 0.00335793 0)
(0.841453 0.0110306 0)
(0.850358 0.00913211 0)
(0.857693 -0.00105674 0)
(0.863191 -0.0146256 0)
(0.868057 -0.0290205 0)
(0.871405 -0.0415568 0)
(0.873674 -0.0471744 0)
(0.877899 -0.0436113 0)
(0.887406 -0.034749 0)
(0.899957 -0.0252377 0)
(0.921419 -0.0198973 0)
(0.95103 -0.0637539 0)
(0.942609 -0.112853 0)
(0.934536 -0.121075 0)
(0.929605 -0.107759 0)
(0.929436 -0.0882196 0)
(0.931813 -0.0719926 0)
(0.934398 -0.0621154 0)
(0.935827 -0.0572409 0)
(0.935756 -0.0550884 0)
(0.933927 -0.0527887 0)
(0.930274 -0.0465707 0)
(0.92756 -0.0352485 0)
(0.927593 -0.0212209 0)
(0.930597 -0.00777254 0)
(0.936395 0.00152595 0)
(0.943177 0.00352524 0)
(0.948367 -0.00110251 0)
(0.951104 -0.00906883 0)
(0.951723 -0.0176406 0)
(0.949809 -0.02413 0)
(0.946611 -0.0253066 0)
(0.944205 -0.0200528 0)
(0.944768 -0.011208 0)
(0.948542 -0.00240542 0)
(0.955568 0.00260619 0)
(0.964149 0.000590012 0)
(0.971789 -0.0079427 0)
(0.977737 -0.0199619 0)
(0.982337 -0.0329338 0)
(0.985464 -0.0442134 0)
(0.988137 -0.0504585 0)
(0.992767 -0.0504151 0)
(1.00233 -0.0463529 0)
(1.01531 -0.042085 0)
(1.03672 -0.0407487 0)
(1.15013 -0.0536361 0)
(1.13391 -0.0977348 0)
(1.11234 -0.107518 0)
(1.09407 -0.0981555 0)
(1.08031 -0.08289 0)
(1.07073 -0.0689751 0)
(1.06329 -0.0596146 0)
(1.05667 -0.0542378 0)
(1.05006 -0.0510909 0)
(1.0431 -0.0477588 0)
(1.03623 -0.0418826 0)
(1.03113 -0.0327436 0)
(1.02904 -0.021724 0)
(1.03009 -0.0111948 0)
(1.03377 -0.00383594 0)
(1.03861 -0.0017789 0)
(1.04261 -0.00471024 0)
(1.04475 -0.0104995 0)
(1.04488 -0.0168683 0)
(1.04304 -0.0216328 0)
(1.04015 -0.02261 0)
(1.03808 -0.0191691 0)
(1.0384 -0.0131981 0)
(1.04153 -0.00742612 0)
(1.04734 -0.00470089 0)
(1.05461 -0.00716169 0)
(1.06148 -0.0146205 0)
(1.06708 -0.0251836 0)
(1.07136 -0.0367898 0)
(1.07451 -0.0472933 0)
(1.07769 -0.0544639 0)
(1.08276 -0.0575942 0)
(1.09206 -0.0578756 0)
(1.10457 -0.0583997 0)
(1.12435 -0.060726 0)
(1.31224 -0.0391673 0)
(1.29173 -0.0729344 0)
(1.2587 -0.0816985 0)
(1.22946 -0.075594 0)
(1.20388 -0.0649842 0)
(1.18359 -0.0549793 0)
(1.167 -0.0480659 0)
(1.15303 -0.0440179 0)
(1.14071 -0.0415573 0)
(1.12961 -0.0389285 0)
(1.12 -0.0345779 0)
(1.11282 -0.0281 0)
(1.10883 -0.0202323 0)
(1.10791 -0.0125122 0)
(1.10934 -0.00704321 0)
(1.11204 -0.00534081 0)
(1.11449 -0.00723506 0)
(1.11575 -0.0113429 0)
(1.11547 -0.015938 0)
(1.11373 -0.0193845 0)
(1.11129 -0.0203058 0)
(1.10955 -0.018332 0)
(1.10962 -0.0146491 0)
(1.11185 -0.0113087 0)
(1.11619 -0.0104792 0)
(1.12181 -0.0135374 0)
(1.12739 -0.020382 0)
(1.13212 -0.0298198 0)
(1.13581 -0.0403599 0)
(1.13877 -0.0504925 0)
(1.14205 -0.0587226 0)
(1.14711 -0.0645983 0)
(1.15564 -0.0686102 0)
(1.16703 -0.0733773 0)
(1.18411 -0.0789153 0)
(1.42643 -0.0229952 0)
(1.40261 -0.041867 0)
(1.36262 -0.0464967 0)
(1.32577 -0.0430641 0)
(1.2919 -0.0372183 0)
(1.26382 -0.0320855 0)
(1.24043 -0.0290819 0)
(1.22101 -0.0279386 0)
(1.20457 -0.027672 0)
(1.19061 -0.0270321 0)
(1.17906 -0.0250437 0)
(1.17043 -0.0214831 0)
(1.16508 -0.0167281 0)
(1.16251 -0.0116263 0)
(1.16196 -0.00792614 0)
(1.16271 -0.00688509 0)
(1.1637 -0.0083664 0)
(1.16407 -0.0114408 0)
(1.16337 -0.0148518 0)
(1.16163 -0.0174509 0)
(1.15946 -0.0183958 0)
(1.1579 -0.0174881 0)
(1.15767 -0.0155147 0)
(1.15894 -0.0140503 0)
(1.16177 -0.0147465 0)
(1.1657 -0.0184361 0)
(1.16978 -0.0249869 0)
(1.17334 -0.0336612 0)
(1.17612 -0.0435008 0)
(1.17845 -0.0535632 0)
(1.18124 -0.0628269 0)
(1.18558 -0.0711502 0)
(1.19258 -0.0781057 0)
(1.2025 -0.0861629 0)
(1.21615 -0.0945881 0)
(1.48541 -0.00363179 0)
(1.46041 -0.00553494 0)
(1.41804 -0.00594117 0)
(1.3772 -0.00437271 0)
(1.33906 -0.0031995 0)
(1.30684 -0.00344694 0)
(1.27985 -0.00529382 0)
(1.25763 -0.0081603 0)
(1.23924 -0.011173 0)
(1.2241 -0.0134348 0)
(1.21192 -0.0144151 0)
(1.20271 -0.0142427 0)
(1.19633 -0.012506 0)
(1.1924 -0.00951042 0)
(1.19045 -0.00738945 0)
(1.18977 -0.00721659 0)
(1.18962 -0.00868158 0)
(1.18921 -0.0110758 0)
(1.18814 -0.0135225 0)
(1.1864 -0.015468 0)
(1.18435 -0.0165829 0)
(1.18262 -0.0166066 0)
(1.18177 -0.0157022 0)
(1.18219 -0.0153293 0)
(1.18387 -0.0171458 0)
(1.18634 -0.0214446 0)
(1.18887 -0.0279136 0)
(1.19098 -0.0360597 0)
(1.19256 -0.0453464 0)
(1.19388 -0.0555093 0)
(1.19556 -0.0657927 0)
(1.19854 -0.075876 0)
(1.20324 -0.0855982 0)
(1.21115 -0.0967377 0)
(1.22069 -0.107329 0)
(1.48551 0.0138591 0)
(1.46139 0.0282627 0)
(1.41998 0.0355661 0)
(1.37986 0.0362551 0)
(1.34206 0.032935 0)
(1.30996 0.0271699 0)
(1.28305 0.0200775 0)
(1.26104 0.0126795 0)
(1.24305 0.00585813 0)
(1.22847 0.000298998 0)
(1.21689 -0.00362907 0)
(1.20791 -0.00586584 0)
(1.20121 -0.0064009 0)
(1.19682 -0.00565921 0)
(1.19437 -0.00515757 0)
(1.19303 -0.00597386 0)
(1.19209 -0.00775327 0)
(1.191 -0.00994782 0)
(1.18952 -0.0120258 0)
(1.18768 -0.0136417 0)
(1.18565 -0.0145892 0)
(1.18376 -0.0148669 0)
(1.18251 -0.0150287 0)
(1.18232 -0.0161262 0)
(1.18297 -0.0189427 0)
(1.1839 -0.0235242 0)
(1.18467 -0.0297171 0)
(1.18505 -0.0374392 0)
(1.18506 -0.0464653 0)
(1.18495 -0.0566372 0)
(1.18493 -0.0675153 0)
(1.18605 -0.0789252 0)
(1.18809 -0.0905003 0)
(1.19356 -0.104066 0)
(1.19826 -0.116626 0)
(1.42674 0.0321513 0)
(1.40551 0.0627677 0)
(1.36839 0.0744706 0)
(1.33365 0.0739052 0)
(1.30078 0.0664816 0)
(1.273 0.0556154 0)
(1.24979 0.0435807 0)
(1.23093 0.0318515 0)
(1.21562 0.0213884 0)
(1.20328 0.0127469 0)
(1.19343 0.00614976 0)
(1.1857 0.00152609 0)
(1.17982 -0.00124891 0)
(1.1758 -0.00262004 0)
(1.17339 -0.0035675 0)
(1.17185 -0.00489432 0)
(1.17053 -0.00660983 0)
(1.16906 -0.00845913 0)
(1.16732 -0.0101739 0)
(1.16535 -0.0115893 0)
(1.16328 -0.012646 0)
(1.16139 -0.0134237 0)
(1.15998 -0.0142784 0)
(1.15913 -0.0158869 0)
(1.15858 -0.0188114 0)
(1.15795 -0.0232079 0)
(1.15704 -0.0291007 0)
(1.15575 -0.0364849 0)
(1.15403 -0.0452782 0)
(1.15213 -0.0554678 0)
(1.15002 -0.0667827 0)
(1.14887 -0.0793127 0)
(1.14779 -0.0925267 0)
(1.15055 -0.107986 0)
(1.14982 -0.122097 0)
(1.31277 0.0462383 0)
(1.2966 0.0901055 0)
(1.26797 0.106262 0)
(1.24222 0.104394 0)
(1.21813 0.0934196 0)
(1.19825 0.0782402 0)
(1.18184 0.0621123 0)
(1.16865 0.0468562 0)
(1.158 0.0334927 0)
(1.1494 0.0224769 0)
(1.14247 0.0139108 0)
(1.13693 0.00763643 0)
(1.13261 0.00336553 0)
(1.12946 0.000614304 0)
(1.12734 -0.00138099 0)
(1.1258 -0.00322568 0)
(1.1244 -0.00505032 0)
(1.12287 -0.0067906 0)
(1.12113 -0.00833123 0)
(1.1192 -0.00961306 0)
(1.11716 -0.0106592 0)
(1.11518 -0.0116134 0)
(1.1134 -0.0128033 0)
(1.11183 -0.0146962 0)
(1.11025 -0.0176668 0)
(1.10843 -0.0218706 0)
(1.10618 -0.0273899 0)
(1.1034 -0.0343174 0)
(1.09999 -0.0426938 0)
(1.09621 -0.0526206 0)
(1.09184 -0.0639961 0)
(1.08817 -0.077057 0)
(1.08355 -0.091218 0)
(1.08325 -0.107985 0)
(1.07652 -0.123279 0)
(1.15072 0.0574387 0)
(1.14101 0.109883 0)
(1.12418 0.127725 0)
(1.11101 0.124031 0)
(1.09902 0.110214 0)
(1.08987 0.0919379 0)
(1.08254 0.073126 0)
(1.0768 0.0556871 0)
(1.07213 0.0406289 0)
(1.06824 0.0282868 0)
(1.06492 0.0186407 0)
(1.06209 0.0114339 0)
(1.05972 0.00629532 0)
(1.05784 0.00274159 0)
(1.05641 0.000183679 0)
(1.05519 -0.00186914 0)
(1.05394 -0.00363324 0)
(1.05251 -0.00517581 0)
(1.05086 -0.00650067 0)
(1.049 -0.00762697 0)
(1.047 -0.00862256 0)
(1.04495 -0.00963196 0)
(1.0429 -0.0109005 0)
(1.0408 -0.0127487 0)
(1.03848 -0.015458 0)
(1.03574 -0.0192084 0)
(1.03238 -0.0241407 0)
(1.02831 -0.0304041 0)
(1.02337 -0.0381226 0)
(1.01776 -0.0474922 0)
(1.0111 -0.0585436 0)
(1.0048 -0.0716427 0)
(0.996437 -0.0862213 0)
(0.992903 -0.103722 0)
(0.979804 -0.119808 0)
(0.951645 0.0633588 0)
(0.950354 0.118548 0)
(0.948567 0.135566 0)
(0.949398 0.129939 0)
(0.951359 0.114429 0)
(0.954056 0.0948149 0)
(0.95675 0.0751638 0)
(0.95909 0.0572784 0)
(0.960815 0.0420523 0)
(0.961876 0.0296854 0)
(0.962323 0.0200508 0)
(0.962286 0.0128232 0)
(0.961923 0.00759162 0)
(0.961388 0.00389235 0)
(0.960765 0.00123667 0)
(0.960013 -0.000778906 0)
(0.959055 -0.00238756 0)
(0.957843 -0.00371156 0)
(0.95637 -0.00481247 0)
(0.954663 -0.00574789 0)
(0.952766 -0.00660254 0)
(0.950719 -0.00750907 0)
(0.948525 -0.00865799 0)
(0.946115 -0.0102791 0)
(0.943331 -0.012586 0)
(0.939989 -0.0157491 0)
(0.935882 -0.0199264 0)
(0.93088 -0.0253002 0)
(0.92473 -0.0320549 0)
(0.917593 -0.0404619 0)
(0.90885 -0.0506744 0)
(0.900052 -0.063164 0)
(0.888002 -0.0774856 0)
(0.881183 -0.0950335 0)
(0.861498 -0.111467 0)
(0.72986 0.0626467 0)
(0.738734 0.113825 0)
(0.752718 0.128242 0)
(0.767954 0.121308 0)
(0.783597 0.105474 0)
(0.797744 0.0865218 0)
(0.80986 0.0680568 0)
(0.819623 0.0516063 0)
(0.827101 0.0378278 0)
(0.832529 0.0267715 0)
(0.836245 0.0182257 0)
(0.838608 0.0118354 0)
(0.839964 0.00720019 0)
(0.840605 0.00390846 0)
(0.84074 0.00156533 0)
(0.840472 -0.000153739 0)
(0.839845 -0.00146227 0)
(0.838892 -0.00249299 0)
(0.837645 -0.00332624 0)
(0.836145 -0.00402946 0)
(0.834423 -0.0046831 0)
(0.832495 -0.00539381 0)
(0.830338 -0.00629965 0)
(0.827871 -0.00756125 0)
(0.824943 -0.00933766 0)
(0.821375 -0.0117769 0)
(0.81694 -0.0150331 0)
(0.811467 -0.0192943 0)
(0.804616 -0.0247755 0)
(0.796474 -0.0317898 0)
(0.786182 -0.0405968 0)
(0.775354 -0.0517519 0)
(0.76002 -0.0650449 0)
(0.750124 -0.0818091 0)
(0.723952 -0.098105 0)
(0.503391 0.0544076 0)
(0.521558 0.0958341 0)
(0.549465 0.106395 0)
(0.577883 0.0990115 0)
(0.604875 0.0847558 0)
(0.628123 0.0685899 0)
(0.647339 0.0533387 0)
(0.66246 0.0400771 0)
(0.673937 0.0291803 0)
(0.682307 0.0205691 0)
(0.688172 0.0139935 0)
(0.692089 0.00912085 0)
(0.694551 0.00560761 0)
(0.69596 0.00312488 0)
(0.696614 0.00137666 0)
(0.696707 0.000124052 0)
(0.696361 -0.000799113 0)
(0.695661 -0.00150217 0)
(0.694667 -0.00205551 0)
(0.693424 -0.00251515 0)
(0.691961 -0.00294375 0)
(0.690281 -0.00341719 0)
(0.688351 -0.00402739 0)
(0.686089 -0.00487903 0)
(0.683353 -0.00608089 0)
(0.679972 -0.00774483 0)
(0.675708 -0.00999831 0)
(0.670363 -0.0130066 0)
(0.663521 -0.0169803 0)
(0.65519 -0.0222302 0)
(0.644272 -0.0290925 0)
(0.632347 -0.0381631 0)
(0.614682 -0.0495671 0)
(0.602308 -0.0645437 0)
(0.57018 -0.080055 0)
(0.293731 0.0390869 0)
(0.317956 0.0662507 0)
(0.355729 0.0720151 0)
(0.391414 0.0655542 0)
(0.424328 0.0551153 0)
(0.451688 0.0438881 0)
(0.47376 0.0336292 0)
(0.490759 0.0249219 0)
(0.503469 0.0179172 0)
(0.512646 0.0124829 0)
(0.519055 0.00840073 0)
(0.523352 0.00541969 0)
(0.526094 0.00329822 0)
(0.527716 0.00181817 0)
(0.528544 0.000792972 0)
(0.528804 7.51476e-05 0)
(0.528643 -0.000438896 0)
(0.528162 -0.000821371 0)
(0.527424 -0.00111243 0)
(0.526479 -0.00134464 0)
(0.525354 -0.00155935 0)
(0.524048 -0.00180198 0)
(0.522526 -0.00212348 0)
(0.520717 -0.00257979 0)
(0.518498 -0.00323269 0)
(0.515719 -0.00415065 0)
(0.512156 -0.00541837 0)
(0.507612 -0.00714999 0)
(0.501642 -0.00951114 0)
(0.494195 -0.0127439 0)
(0.483997 -0.0171953 0)
(0.472502 -0.0233772 0)
(0.454315 -0.0318043 0)
(0.440962 -0.0434284 0)
(0.404561 -0.0573265 0)
(0.124541 0.0184393 0)
(0.147618 0.0317036 0)
(0.185617 0.0343034 0)
(0.21918 0.0305429 0)
(0.249287 0.0250171 0)
(0.273339 0.0193728 0)
(0.292197 0.0144878 0)
(0.306366 0.0105214 0)
(0.316758 0.00743197 0)
(0.324127 0.00509583 0)
(0.329195 0.00338609 0)
(0.332548 0.00216892 0)
(0.334665 0.00132272 0)
(0.335909 0.000744584 0)
(0.336547 0.000352498 0)
(0.336764 8.479e-05 0)
(0.336682 -0.000102536 0)
(0.336378 -0.000229208 0)
(0.3359 -0.000320197 0)
(0.335294 -0.000395169 0)
(0.334581 -0.000466653 0)
(0.333757 -0.000547937 0)
(0.332795 -0.000657043 0)
(0.331644 -0.00081539 0)
(0.330217 -0.00104734 0)
(0.328411 -0.0013804 0)
(0.326055 -0.00185243 0)
(0.323005 -0.00251605 0)
(0.318873 -0.00346362 0)
(0.313623 -0.00482955 0)
(0.306004 -0.0068778 0)
(0.29727 -0.00996492 0)
(0.281833 -0.0147972 0)
(0.270224 -0.0222114 0)
(0.232936 -0.0326466 0)
(0.0200251 0.00191032 0)
(0.0300175 0.00219985 0)
(0.0503896 0.00170421 0)
(0.0669088 0.00138928 0)
(0.0816927 0.0010719 0)
(0.0930534 0.000951116 0)
(0.101797 0.00065171 0)
(0.10812 0.000330087 0)
(0.112599 0.000102999 0)
(0.115656 -3.99666e-05 0)
(0.11768 -0.000124427 0)
(0.118968 -0.000168622 0)
(0.119746 -0.000187587 0)
(0.120179 -0.000191398 0)
(0.12038 -0.000186685 0)
(0.120426 -0.000178692 0)
(0.120365 -0.000169711 0)
(0.120233 -0.000156964 0)
(0.120058 -0.000143637 0)
(0.119848 -0.000134636 0)
(0.119604 -0.000126221 0)
(0.119328 -0.00011696 0)
(0.11901 -0.000107105 0)
(0.118633 -9.86829e-05 0)
(0.118165 -9.35064e-05 0)
(0.117566 -9.17933e-05 0)
(0.116762 -9.81148e-05 0)
(0.115709 -0.000111902 0)
(0.114193 -0.000157131 0)
(0.112267 -0.000223961 0)
(0.109067 -0.000436634 0)
(0.105555 -0.000684278 0)
(0.0973426 -0.00152336 0)
(0.0924183 -0.00140978 0)
(0.0673269 -0.00549782 0)
(0.154289 0.012569 0)
(0.149534 0.00239295 0)
(0.145523 -0.000203317 0)
(0.152467 -0.0029831 0)
(0.159643 -0.0136378 0)
(0.201678 -0.0219762 0)
(0.217112 -0.00965413 0)
(0.228524 -0.000950398 1.76244e-21)
(0.223135 0.00807894 0)
(0.210707 0.0208114 0)
(0.166187 0.0128943 0)
(0.159258 0.00227356 0)
(0.152713 0.000360497 0)
(0.152357 -0.000423394 0)
(0.155365 -0.00125172 0)
(0.408144 0.0191628 0)
(0.403646 0.00353203 0)
(0.402653 -0.00668772 0)
(0.411099 -0.017243 0)
(0.421507 -0.0338942 0)
(0.440615 -0.0372343 0)
(0.45502 -0.0224944 0)
(0.467966 -0.00870303 -1.67256e-21)
(0.46607 0.00683732 0)
(0.459831 0.0253879 0)
(0.443272 0.0229829 0)
(0.434202 0.00637227 0)
(0.425749 -0.000507493 0)
(0.424262 -0.00519379 0)
(0.426138 -0.00765014 0)
(0.617252 0.0124881 0)
(0.618345 -0.00332635 0)
(0.621702 -0.0181448 0)
(0.629443 -0.0335044 0)
(0.637754 -0.0513619 0)
(0.64631 -0.05723 0)
(0.655899 -0.0424759 0)
(0.666876 -0.021074 0)
(0.670076 0.00266775 0)
(0.673928 0.0230234 0)
(0.672731 0.0209384 0)
(0.670001 0.00514399 0)
(0.663834 -0.00491803 0)
(0.662458 -0.0123112 0)
(0.662624 -0.0165619 0)
(0.793455 -0.00354497 0)
(0.798894 -0.0173215 0)
(0.806117 -0.0332634 0)
(0.81367 -0.0498342 0)
(0.820564 -0.0658553 0)
(0.824738 -0.0706072 0)
(0.830468 -0.0581017 0)
(0.839626 -0.0367244 0)
(0.847794 -0.0126575 0)
(0.858755 0.00731828 0)
(0.866927 0.00884234 0)
(0.869705 -0.00304631 0)
(0.868078 -0.0133064 0)
(0.867802 -0.0217799 0)
(0.867592 -0.027365 0)
(0.93855 -0.0241658 0)
(0.947185 -0.0356601 0)
(0.957414 -0.0510061 0)
(0.965547 -0.0668761 0)
(0.972172 -0.0805458 0)
(0.97599 -0.0845086 0)
(0.98115 -0.0743955 0)
(0.990167 -0.055027 0)
(1.00146 -0.0325606 0)
(1.01604 -0.0136862 0)
(1.03008 -0.00912844 0)
(1.03761 -0.0164209 0)
(1.04045 -0.0253047 0)
(1.04214 -0.0333792 0)
(1.04286 -0.039741 0)
(1.05423 -0.0466077 0)
(1.0648 -0.0564651 0)
(1.07714 -0.0703501 0)
(1.08664 -0.0844049 0)
(1.09444 -0.0958222 0)
(1.10001 -0.099163 0)
(1.10661 -0.0913904 0)
(1.11679 -0.075155 0)
(1.13038 -0.0555063 0)
(1.14733 -0.0382816 0)
(1.16456 -0.0312054 0)
(1.1764 -0.0338879 0)
(1.18318 -0.0402679 0)
(1.18719 -0.0468312 0)
(1.19 -0.0534796 0)
(1.14119 -0.0686977 0)
(1.15308 -0.0777317 0)
(1.16685 -0.0903755 0)
(1.17824 -0.102664 0)
(1.18818 -0.112376 0)
(1.1966 -0.115433 0)
(1.20588 -0.109695 0)
(1.21817 -0.0965316 0)
(1.2339 -0.0797683 0)
(1.25268 -0.0640982 0)
(1.27206 -0.0552742 0)
(1.28734 -0.0540038 6.0636e-21)
(1.29803 -0.0573677 0)
(1.30454 -0.0616861 0)
(1.31037 -0.0681788 0)
(1.19985 -0.0892571 -1.72696e-20)
(1.21304 -0.0982002 0)
(1.22788 -0.110176 -1.56469e-20)
(1.2414 -0.121191 0)
(1.2539 -0.129829 0)
(1.26563 -0.132922 0)
(1.27813 -0.128962 0)
(1.29312 -0.118552 0)
(1.31118 -0.10443 0)
(1.33181 -0.0901734 -8.71477e-21)
(1.35321 -0.0801668 0)
(1.37145 -0.0756251 -6.08953e-21)
(1.38602 -0.0759142 -4.65522e-21)
(1.3953 -0.0775992 0)
(1.40521 -0.0836021 0)
(1.23057 -0.107427 1.72664e-20)
(1.24536 -0.116906 0)
(1.26106 -0.128898 1.56599e-20)
(1.2768 -0.139316 0)
(1.29193 -0.147524 0)
(1.30701 -0.150967 -1.29657e-20)
(1.32289 -0.148592 0)
(1.3409 -0.14054 0)
(1.36153 -0.1287 0)
(1.38431 -0.115687 8.69864e-21)
(1.40797 -0.104928 0)
(1.42905 -0.0977857 -5.96844e-21)
(1.44757 -0.0952289 4.67919e-21)
(1.45979 -0.094179 0)
(1.47464 -0.0996331 0)
(1.23373 -0.122583 0)
(1.25055 -0.133072 0)
(1.26702 -0.145682 0)
(1.28497 -0.156145 0)
(1.30256 -0.164489 0)
(1.3208 -0.168583 1.29448e-20)
(1.33993 -0.167701 0)
(1.36101 -0.161712 0)
(1.38442 -0.151865 0)
(1.40966 -0.139981 0)
(1.43594 -0.128789 0)
(1.45998 -0.119571 5.98025e-21)
(1.48256 -0.114486 0)
(1.49768 -0.110484 0)
(1.51869 -0.114884 0)
(1.2099 -0.134193 0)
(1.22917 -0.14602 0)
(1.24632 -0.159686 0)
(1.26638 -0.170708 0)
(1.28614 -0.17963 0)
(1.30716 -0.184632 0)
(1.3292 -0.185226 0)
(1.35317 -0.181119 0)
(1.37938 -0.173105 0)
(1.40732 -0.162348 0)
(1.43661 -0.151037 0)
(1.46387 -0.140242 0)
(1.49115 -0.132942 0)
(1.50884 -0.126861 0)
(1.53754 -0.131194 0)
(1.15994 -0.141754 0)
(1.18197 -0.1551 0)
(1.19969 -0.170064 0)
(1.22166 -0.181976 0)
(1.24316 -0.191762 0)
(1.26644 -0.197854 0)
(1.29085 -0.19995 0)
(1.31729 -0.197691 0)
(1.34606 -0.191484 0)
(1.37668 -0.18197 0)
(1.40917 -0.17092 0)
(1.43995 -0.159112 0)
(1.47224 -0.149913 0)
(1.49369 -0.141126 0)
(1.52933 -0.145641 0)
(1.08498 -0.144729 0)
(1.10998 -0.159662 0)
(1.12807 -0.175967 0)
(1.15166 -0.188905 0)
(1.17437 -0.199654 0)
(1.19921 -0.20691 0)
(1.22523 -0.210467 0)
(1.25347 -0.209964 0)
(1.28428 -0.205693 0)
(1.31721 -0.197718 0)
(1.35279 -0.187425 0)
(1.38712 -0.175213 -1.21704e-20)
(1.42461 -0.164787 0)
(1.45004 -0.154278 0)
(1.49348 -0.158098 0)
(0.986469 -0.142647 0)
(1.01452 -0.159108 0)
(1.03275 -0.176573 0)
(1.05753 -0.190451 0)
(1.08081 -0.202031 0)
(1.10642 -0.21032 0)
(1.13306 -0.215299 0)
(1.16224 -0.21678 0)
(1.19401 -0.214453 0)
(1.22841 -0.208203 0)
(1.26664 -0.199256 0)
(1.3043 -0.187375 2.46444e-20)
(1.34733 -0.176338 0)
(1.3767 -0.163906 0)
(1.42901 -0.167275 0)
(0.866276 -0.135158 0)
(0.897338 -0.152939 0)
(0.915397 -0.17113 0)
(0.940804 -0.18564 0)
(0.963927 -0.197737 0)
(0.989364 -0.206823 0)
(1.01574 -0.21298 0)
(1.04426 -0.215866 0)
(1.07548 -0.2154 0)
(1.11007 -0.211667 0)
(1.14989 -0.204898 0)
(1.19007 -0.194239 -1.24674e-20)
(1.23851 -0.183475 0)
(1.27189 -0.169737 0)
(1.33431 -0.173192 0)
(0.726806 -0.122 0)
(0.760638 -0.140761 0)
(0.778117 -0.158938 0)
(0.803352 -0.173484 0)
(0.825353 -0.185462 -3.14145e-20)
(0.849298 -0.194767 0)
(0.8738 -0.201466 0)
(0.900413 -0.205501 -2.53968e-20)
(0.930257 -0.207129 0)
(0.9632 -0.206012 0)
(1.00246 -0.201987 0)
(1.04331 -0.193695 0)
(1.09616 -0.184489 0)
(1.13346 -0.170369 0)
(1.20684 -0.173987 0)
(0.571103 -0.103215 0)
(0.60719 -0.122304 0)
(0.623613 -0.139326 -3.55315e-20)
(0.647654 -0.153049 -3.3481e-20)
(0.667519 -0.164028 3.13437e-20)
(0.688718 -0.172806 -3.03273e-20)
(0.71002 -0.17954 -2.84762e-20)
(0.733004 -0.184427 2.53357e-20)
(0.759012 -0.187542 0)
(0.788178 -0.18861 -2.1407e-20)
(0.824371 -0.187718 0)
(0.862986 -0.18286 -1.47026e-20)
(0.917718 -0.176839 0)
(0.957087 -0.163628 0)
(1.04233 -0.168246 -1.0677e-20)
(0.403608 -0.0789767 0)
(0.440566 -0.0976594 0)
(0.455053 -0.111878 3.54485e-20)
(0.476389 -0.123517 3.3401e-20)
(0.492936 -0.132371 0)
(0.510082 -0.139644 -9.44473e-22)
(0.526834 -0.145445 2.84028e-20)
(0.544581 -0.15016 0)
(0.564743 -0.153983 0)
(0.587433 -0.15675 2.135e-20)
(0.61724 -0.15865 0)
(0.649371 -0.157677 -1.35783e-21)
(0.701376 -0.156122 0)
(0.738751 -0.146293 0)
(0.834944 -0.153113 1.06489e-20)
(0.230111 -0.0495109 0)
(0.265231 -0.0656531 0)
(0.276573 -0.0754948 0)
(0.292818 -0.0839291 0)
(0.304397 -0.0898012 0)
(0.315931 -0.0946991 3.1111e-20)
(0.326788 -0.0986986 0)
(0.337956 -0.10222 0)
(0.350668 -0.105561 0)
(0.364679 -0.108584 0)
(0.384541 -0.112064 0)
(0.405228 -0.113862 1.59742e-20)
(0.446417 -0.117547 0)
(0.47392 -0.112151 0)
(0.572407 -0.124041 0)
(0.0640427 -0.0173732 0)
(0.0863295 -0.0267922 0)
(0.091736 -0.0289486 0)
(0.0996368 -0.0318575 0)
(0.10455 -0.0337255 0)
(0.10908 -0.0354255 -5.4293e-20)
(0.113049 -0.0368376 0)
(0.116812 -0.0381845 0)
(0.121221 -0.0396025 0)
(0.125377 -0.0411191 0)
(0.132958 -0.0431536 0)
(0.13811 -0.045196 -3.03332e-20)
(0.158742 -0.0488952 0)
(0.164296 -0.050411 0)
(0.235313 -0.0610762 0)
)
;

boundaryField
{
    inlet
    {
        type            BoundaryLayerInletVelocity;
        flowDir         (1 0 0);
        yDir            (0 1 0);
        Uo              1.5;
        n               2;
        h               0.4;
        value           nonuniform List<vector> 
20
(
(0.0142594 0 0)
(0.115509 0 0)
(0.287109 0 0)
(0.500259 0 0)
(0.729759 0 0)
(0.954009 0 0)
(1.15501 0 0)
(1.31836 0 0)
(1.43326 0 0)
(1.49251 0 0)
(1.49251 0 0)
(1.43326 0 0)
(1.31836 0 0)
(1.15501 0 0)
(0.954009 0 0)
(0.729759 0 0)
(0.500259 0 0)
(0.287109 0 0)
(0.115509 0 0)
(0.0142594 0 0)
)
;
    }
    outlet
    {
        type            pressureInletOutletVelocity;
        value           nonuniform List<vector> 
20
(
(0.155365 -0.00125172 0)
(0.426138 -0.00765014 0)
(0.662624 -0.0165619 0)
(0.867592 -0.027365 0)
(1.04286 -0.039741 0)
(1.19 -0.0534796 0)
(1.31037 -0.0681788 0)
(1.40521 -0.0836021 0)
(1.47464 -0.0996331 0)
(1.51869 -0.114884 0)
(1.53754 -0.131194 0)
(1.52933 -0.145641 0)
(1.49348 -0.158098 0)
(1.42901 -0.167275 0)
(1.33431 -0.173192 0)
(1.20684 -0.173987 0)
(1.04233 -0.168246 -1.0677e-20)
(0.834944 -0.153113 1.06489e-20)
(0.572407 -0.124041 0)
(0.235313 -0.0610762 0)
)
;
    }
    top
    {
        type            noSlip;
    }
    bottom
    {
        type            noSlip;
    }
    frontAndBack
    {
        type            empty;
    }
}


// ************************************************************************* //
