#         Time          sum
            0            0
       0.0005      31.6996
        0.001      32.2097
       0.0015      32.0783
        0.002      32.0784
       0.0025      32.0813
        0.003      32.0905
       0.0035      32.0961
        0.004      32.1005
       0.0045      32.1042
        0.005      32.1076
       0.0055      32.1104
        0.006      32.1129
       0.0065      32.1151
        0.007      32.1171
       0.0075      32.1188
        0.008      32.1203
       0.0085      32.1217
        0.009      32.1229
       0.0095       32.124
         0.01      32.1251
       0.0105       32.126
        0.011      32.1268
       0.0115      32.1276
        0.012      32.1282
       0.0125      32.1288
        0.013      32.1294
       0.0135      32.1299
        0.014      32.1304
       0.0145      32.1309
        0.015      32.1313
       0.0155      32.1317
        0.016      32.1322
       0.0165      32.1326
        0.017      32.1329
       0.0175      32.1333
        0.018      32.1337
       0.0185       32.134
        0.019      32.1343
       0.0195      32.1347
         0.02       32.135
       0.0205      32.1352
        0.021      32.1355
       0.0215      32.1358
        0.022       32.136
       0.0225      32.1363
        0.023      32.1365
       0.0235      32.1367
        0.024      32.1369
       0.0245      32.1371
        0.025      32.1373
       0.0255      32.1375
        0.026      32.1377
       0.0265      32.1379
        0.027      32.1381
       0.0275      32.1382
        0.028      32.1384
       0.0285      32.1385
        0.029      32.1387
       0.0295      32.1388
         0.03       32.139
       0.0305      32.1391
        0.031      32.1393
       0.0315      32.1394
        0.032      32.1395
       0.0325      32.1397
        0.033      32.1398
       0.0335      32.1399
        0.034        32.14
       0.0345      32.1401
        0.035      32.1402
       0.0355      32.1404
        0.036      32.1405
       0.0365      32.1406
        0.037      32.1407
       0.0375      32.1408
        0.038      32.1409
       0.0385       32.141
        0.039      32.1411
       0.0395      32.1412
         0.04      32.1412
       0.0405      32.1413
        0.041      32.1414
       0.0415      32.1415
        0.042      32.1416
       0.0425      32.1417
        0.043      32.1418
       0.0435      32.1418
        0.044      32.1419
       0.0445       32.142
        0.045      32.1421
       0.0455      32.1421
        0.046      32.1422
       0.0465      32.1423
        0.047      32.1424
       0.0475      32.1424
        0.048      32.1425
       0.0485      32.1426
        0.049      32.1426
       0.0495      32.1427
         0.05      32.1428
       0.0505      32.1428
        0.051      32.1429
       0.0515       32.143
        0.052       32.143
       0.0525      32.1431
        0.053      32.1431
       0.0535      32.1432
        0.054      32.1432
       0.0545      32.1433
        0.055      32.1434
       0.0555      32.1434
        0.056      32.1435
       0.0565      32.1435
        0.057      32.1436
       0.0575      32.1436
        0.058      32.1437
       0.0585      32.1437
        0.059      32.1438
       0.0595      32.1438
         0.06      32.1439
       0.0605      32.1439
        0.061       32.144
       0.0615       32.144
        0.062      32.1441
       0.0625      32.1441
        0.063      32.1441
       0.0635      32.1442
        0.064      32.1442
       0.0645      32.1443
        0.065      32.1443
       0.0655      32.1444
        0.066      32.1444
       0.0665      32.1444
        0.067      32.1445
       0.0675      32.1445
        0.068      32.1445
       0.0685      32.1446
        0.069      32.1446
       0.0695      32.1447
         0.07      32.1447
       0.0705      32.1447
        0.071      32.1448
       0.0715      32.1448
        0.072      32.1448
       0.0725      32.1449
        0.073      32.1449
       0.0735      32.1449
        0.074       32.145
       0.0745       32.145
        0.075       32.145
       0.0755      32.1451
        0.076      32.1451
       0.0765      32.1451
        0.077      32.1452
       0.0775      32.1452
        0.078      32.1452
       0.0785      32.1453
        0.079      32.1453
       0.0795      32.1453
         0.08      32.1454
       0.0805      32.1454
        0.081      32.1454
       0.0815      32.1454
        0.082      32.1455
       0.0825      32.1455
        0.083      32.1455
       0.0835      32.1456
        0.084      32.1456
       0.0845      32.1456
        0.085      32.1456
       0.0855      32.1457
        0.086      32.1457
       0.0865      32.1457
        0.087      32.1457
       0.0875      32.1458
        0.088      32.1458
       0.0885      32.1458
        0.089      32.1459
       0.0895      32.1459
         0.09      32.1459
       0.0905      32.1459
        0.091      32.1459
       0.0915       32.146
        0.092       32.146
       0.0925       32.146
        0.093       32.146
       0.0935      32.1461
        0.094      32.1461
       0.0945      32.1461
        0.095      32.1461
       0.0955      32.1462
        0.096      32.1462
       0.0965      32.1462
        0.097      32.1462
       0.0975      32.1462
        0.098      32.1463
       0.0985      32.1463
        0.099      32.1463
       0.0995      32.1463
          0.1      32.1464
       0.1005      32.1464
        0.101      32.1464
       0.1015      32.1464
        0.102      32.1464
       0.1025      32.1465
        0.103      32.1465
       0.1035      32.1465
        0.104      32.1465
       0.1045      32.1466
        0.105      32.1466
       0.1055      32.1466
        0.106      32.1467
       0.1065      32.1467
        0.107      32.1467
       0.1075      32.1467
        0.108      32.1468
       0.1085      32.1468
        0.109      32.1468
       0.1095      32.1468
         0.11      32.1468
       0.1105      32.1469
        0.111      32.1469
       0.1115      32.1469
        0.112      32.1469
       0.1125      32.1469
        0.113       32.147
       0.1135       32.147
        0.114       32.147
       0.1145       32.147
        0.115       32.147
       0.1155       32.147
        0.116       32.147
       0.1165      32.1471
        0.117      32.1471
       0.1175      32.1471
        0.118      32.1471
       0.1185      32.1471
        0.119      32.1471
       0.1195      32.1471
         0.12      32.1472
       0.1205      32.1472
        0.121      32.1472
       0.1215      32.1472
        0.122      32.1472
       0.1225      32.1472
        0.123      32.1472
       0.1235      32.1472
        0.124      32.1473
       0.1245      32.1473
        0.125      32.1473
       0.1255      32.1473
        0.126      32.1473
       0.1265      32.1473
        0.127      32.1473
       0.1275      32.1473
        0.128      32.1474
       0.1285      32.1474
        0.129      32.1474
       0.1295      32.1474
         0.13      32.1474
       0.1305      32.1474
        0.131      32.1474
       0.1315      32.1474
        0.132      32.1474
       0.1325      32.1475
        0.133      32.1475
       0.1335      32.1475
        0.134      32.1475
       0.1345      32.1475
        0.135      32.1475
       0.1355      32.1475
        0.136      32.1475
       0.1365      32.1475
        0.137      32.1476
       0.1375      32.1476
        0.138      32.1476
       0.1385      32.1476
        0.139      32.1476
       0.1395      32.1476
         0.14      32.1476
       0.1405      32.1476
        0.141      32.1476
       0.1415      32.1476
        0.142      32.1476
       0.1425      32.1477
        0.143      32.1477
       0.1435      32.1477
        0.144      32.1477
       0.1445      32.1477
        0.145      32.1477
       0.1455      32.1477
        0.146      32.1477
       0.1465      32.1477
        0.147      32.1477
       0.1475      32.1477
        0.148      32.1478
       0.1485      32.1478
        0.149      32.1478
       0.1495      32.1478
         0.15      32.1478
       0.1505      32.1478
        0.151      32.1478
       0.1515      32.1478
        0.152      32.1478
       0.1525      32.1478
        0.153      32.1478
       0.1535      32.1478
        0.154      32.1479
       0.1545      32.1479
        0.155      32.1479
       0.1555      32.1479
        0.156      32.1479
       0.1565      32.1479
        0.157      32.1479
       0.1575      32.1479
        0.158      32.1479
       0.1585      32.1479
        0.159      32.1479
       0.1595      32.1479
         0.16      32.1479
       0.1605      32.1479
        0.161       32.148
       0.1615       32.148
        0.162       32.148
       0.1625       32.148
        0.163       32.148
       0.1635       32.148
        0.164       32.148
       0.1645       32.148
        0.165       32.148
       0.1655       32.148
        0.166       32.148
       0.1665       32.148
        0.167       32.148
       0.1675       32.148
        0.168       32.148
       0.1685       32.148
        0.169      32.1481
       0.1695      32.1481
         0.17      32.1481
       0.1705      32.1481
        0.171      32.1481
       0.1715      32.1481
        0.172      32.1481
       0.1725      32.1481
        0.173      32.1481
       0.1735      32.1481
        0.174      32.1481
       0.1745      32.1481
        0.175      32.1481
       0.1755      32.1481
        0.176      32.1481
       0.1765      32.1481
        0.177      32.1481
       0.1775      32.1482
        0.178      32.1482
       0.1785      32.1482
        0.179      32.1482
       0.1795      32.1482
         0.18      32.1482
       0.1805      32.1482
        0.181      32.1482
       0.1815      32.1482
        0.182      32.1482
       0.1825      32.1482
        0.183      32.1482
       0.1835      32.1482
        0.184      32.1482
       0.1845      32.1482
        0.185      32.1482
       0.1855      32.1482
        0.186      32.1482
       0.1865      32.1482
        0.187      32.1482
       0.1875      32.1483
        0.188      32.1483
       0.1885      32.1483
        0.189      32.1483
       0.1895      32.1483
         0.19      32.1483
       0.1905      32.1483
        0.191      32.1483
       0.1915      32.1483
        0.192      32.1483
       0.1925      32.1483
        0.193      32.1483
       0.1935      32.1483
        0.194      32.1483
       0.1945      32.1483
        0.195      32.1483
       0.1955      32.1483
        0.196      32.1483
       0.1965      32.1483
        0.197      32.1483
       0.1975      32.1483
        0.198      32.1483
       0.1985      32.1483
        0.199      32.1484
       0.1995      32.1484
          0.2      32.1484
       0.2005      32.1484
        0.201      32.1484
       0.2015      32.1484
        0.202      32.1484
       0.2025      32.1484
        0.203      32.1484
       0.2035      32.1484
        0.204      32.1484
       0.2045      32.1484
        0.205      32.1484
       0.2055      32.1484
        0.206      32.1484
       0.2065      32.1484
        0.207      32.1484
       0.2075      32.1484
        0.208      32.1484
       0.2085      32.1484
        0.209      32.1484
       0.2095      32.1484
         0.21      32.1484
       0.2105      32.1484
        0.211      32.1484
       0.2115      32.1484
        0.212      32.1484
       0.2125      32.1484
        0.213      32.1485
       0.2135      32.1485
        0.214      32.1485
       0.2145      32.1485
        0.215      32.1485
       0.2155      32.1485
        0.216      32.1485
       0.2165      32.1485
        0.217      32.1485
       0.2175      32.1485
        0.218      32.1485
       0.2185      32.1485
        0.219      32.1485
       0.2195      32.1485
         0.22      32.1485
       0.2205      32.1485
        0.221      32.1485
       0.2215      32.1485
        0.222      32.1485
       0.2225      32.1485
        0.223      32.1485
       0.2235      32.1485
        0.224      32.1485
       0.2245      32.1485
        0.225      32.1485
       0.2255      32.1485
        0.226      32.1485
       0.2265      32.1485
        0.227      32.1485
       0.2275      32.1485
        0.228      32.1485
       0.2285      32.1485
        0.229      32.1485
       0.2295      32.1485
         0.23      32.1485
       0.2305      32.1486
        0.231      32.1486
       0.2315      32.1486
        0.232      32.1486
       0.2325      32.1486
        0.233      32.1486
       0.2335      32.1486
        0.234      32.1486
       0.2345      32.1486
        0.235      32.1486
       0.2355      32.1486
        0.236      32.1486
       0.2365      32.1486
        0.237      32.1486
       0.2375      32.1486
        0.238      32.1486
       0.2385      32.1486
        0.239      32.1486
       0.2395      32.1486
         0.24      32.1486
       0.2405      32.1486
        0.241      32.1486
       0.2415      32.1486
        0.242      32.1486
       0.2425      32.1486
        0.243      32.1486
       0.2435      32.1486
        0.244      32.1486
       0.2445      32.1486
        0.245      32.1486
       0.2455      32.1486
        0.246      32.1486
       0.2465      32.1486
        0.247      32.1486
       0.2475      32.1486
        0.248      32.1486
       0.2485      32.1486
        0.249      32.1486
       0.2495      32.1486
         0.25      32.1486
       0.2505      32.1486
        0.251      32.1486
       0.2515      32.1486
        0.252      32.1486
       0.2525      32.1486
        0.253      32.1487
       0.2535      32.1487
        0.254      32.1487
       0.2545      32.1487
        0.255      32.1487
       0.2555      32.1487
        0.256      32.1487
       0.2565      32.1487
        0.257      32.1487
       0.2575      32.1487
        0.258      32.1487
       0.2585      32.1487
        0.259      32.1487
       0.2595      32.1487
         0.26      32.1487
       0.2605      32.1487
        0.261      32.1487
       0.2615      32.1487
        0.262      32.1487
       0.2625      32.1487
        0.263      32.1487
       0.2635      32.1487
        0.264      32.1487
       0.2645      32.1487
        0.265      32.1487
       0.2655      32.1487
        0.266      32.1487
       0.2665      32.1487
        0.267      32.1487
       0.2675      32.1487
        0.268      32.1487
       0.2685      32.1487
        0.269      32.1487
       0.2695      32.1487
         0.27      32.1487
       0.2705      32.1487
        0.271      32.1487
       0.2715      32.1487
        0.272      32.1487
       0.2725      32.1487
        0.273      32.1487
       0.2735      32.1487
        0.274      32.1487
       0.2745      32.1487
        0.275      32.1487
       0.2755      32.1487
        0.276      32.1487
       0.2765      32.1487
        0.277      32.1487
       0.2775      32.1487
        0.278      32.1487
       0.2785      32.1487
        0.279      32.1487
       0.2795      32.1487
         0.28      32.1487
       0.2805      32.1487
        0.281      32.1487
       0.2815      32.1487
        0.282      32.1487
       0.2825      32.1487
        0.283      32.1487
       0.2835      32.1487
        0.284      32.1487
       0.2845      32.1487
        0.285      32.1488
       0.2855      32.1488
        0.286      32.1488
       0.2865      32.1488
        0.287      32.1488
       0.2875      32.1488
        0.288      32.1488
       0.2885      32.1488
        0.289      32.1488
       0.2895      32.1488
         0.29      32.1488
       0.2905      32.1488
        0.291      32.1488
       0.2915      32.1488
        0.292      32.1488
       0.2925      32.1488
        0.293      32.1488
       0.2935      32.1488
        0.294      32.1488
       0.2945      32.1488
        0.295      32.1488
       0.2955      32.1488
        0.296      32.1488
       0.2965      32.1488
        0.297      32.1488
       0.2975      32.1488
        0.298      32.1488
       0.2985      32.1488
        0.299      32.1488
       0.2995      32.1488
          0.3      32.1488
       0.3005      32.1488
        0.301      32.1488
       0.3015      32.1488
        0.302      32.1488
       0.3025      32.1488
        0.303      32.1488
       0.3035      32.1488
        0.304      32.1488
       0.3045      32.1488
        0.305      32.1488
       0.3055      32.1488
        0.306      32.1488
       0.3065      32.1488
        0.307      32.1488
       0.3075      32.1488
        0.308      32.1488
       0.3085      32.1488
        0.309      32.1488
       0.3095      32.1488
         0.31      32.1488
       0.3105      32.1488
        0.311      32.1488
       0.3115      32.1488
        0.312      32.1488
       0.3125      32.1488
        0.313      32.1488
       0.3135      32.1488
        0.314      32.1488
       0.3145      32.1488
        0.315      32.1488
       0.3155      32.1488
        0.316      32.1488
       0.3165      32.1488
        0.317      32.1488
       0.3175      32.1488
        0.318      32.1488
       0.3185      32.1488
        0.319      32.1488
       0.3195      32.1488
         0.32      32.1488
       0.3205      32.1488
        0.321      32.1488
       0.3215      32.1488
        0.322      32.1488
       0.3225      32.1488
        0.323      32.1488
       0.3235      32.1488
        0.324      32.1488
       0.3245      32.1488
        0.325      32.1488
       0.3255      32.1488
        0.326      32.1488
       0.3265      32.1488
        0.327      32.1488
       0.3275      32.1488
        0.328      32.1488
       0.3285      32.1488
        0.329      32.1488
       0.3295      32.1488
         0.33      32.1488
       0.3305      32.1488
        0.331      32.1488
       0.3315      32.1488
        0.332      32.1488
       0.3325      32.1488
        0.333      32.1488
       0.3335      32.1488
        0.334      32.1488
       0.3345      32.1488
        0.335      32.1488
       0.3355      32.1488
        0.336      32.1488
       0.3365      32.1488
        0.337      32.1488
       0.3375      32.1488
        0.338      32.1488
       0.3385      32.1489
        0.339      32.1489
       0.3395      32.1489
         0.34      32.1489
       0.3405      32.1489
        0.341      32.1489
       0.3415      32.1489
        0.342      32.1489
       0.3425      32.1489
        0.343      32.1489
       0.3435      32.1489
        0.344      32.1489
       0.3445      32.1489
        0.345      32.1489
       0.3455      32.1489
        0.346      32.1489
       0.3465      32.1489
        0.347      32.1489
       0.3475      32.1489
        0.348      32.1489
       0.3485      32.1489
        0.349      32.1489
       0.3495      32.1489
         0.35      32.1489
       0.3505      32.1489
        0.351      32.1489
       0.3515      32.1489
        0.352      32.1489
       0.3525      32.1489
        0.353      32.1489
       0.3535      32.1489
        0.354      32.1489
       0.3545      32.1489
        0.355      32.1489
       0.3555      32.1489
        0.356      32.1489
       0.3565      32.1489
        0.357      32.1489
       0.3575      32.1489
        0.358      32.1489
       0.3585      32.1489
        0.359      32.1489
       0.3595      32.1489
         0.36      32.1489
       0.3605      32.1489
        0.361      32.1489
       0.3615      32.1489
        0.362      32.1489
       0.3625      32.1489
        0.363      32.1489
       0.3635      32.1489
        0.364      32.1489
       0.3645      32.1489
        0.365      32.1489
       0.3655      32.1489
        0.366      32.1489
       0.3665      32.1489
        0.367      32.1489
       0.3675      32.1489
        0.368      32.1489
       0.3685      32.1489
        0.369      32.1489
       0.3695      32.1489
         0.37      32.1489
       0.3705      32.1489
        0.371      32.1489
       0.3715      32.1489
        0.372      32.1489
       0.3725      32.1489
        0.373      32.1489
       0.3735      32.1489
        0.374      32.1489
       0.3745      32.1489
        0.375      32.1489
       0.3755      32.1489
        0.376      32.1489
       0.3765      32.1489
        0.377      32.1489
       0.3775      32.1489
        0.378      32.1489
       0.3785      32.1489
        0.379      32.1489
       0.3795      32.1489
         0.38      32.1489
       0.3805      32.1489
        0.381      32.1489
       0.3815      32.1489
        0.382      32.1489
       0.3825      32.1489
        0.383      32.1489
       0.3835      32.1489
        0.384      32.1489
       0.3845      32.1489
        0.385      32.1489
       0.3855      32.1489
        0.386      32.1489
       0.3865      32.1489
        0.387      32.1489
       0.3875      32.1489
        0.388      32.1489
       0.3885      32.1489
        0.389      32.1489
       0.3895      32.1489
         0.39      32.1489
       0.3905      32.1489
        0.391      32.1489
       0.3915      32.1489
        0.392      32.1489
       0.3925      32.1489
        0.393      32.1489
       0.3935      32.1489
        0.394      32.1489
       0.3945      32.1489
        0.395      32.1489
       0.3955      32.1489
        0.396      32.1489
       0.3965      32.1489
        0.397      32.1489
       0.3975      32.1489
        0.398      32.1489
       0.3985      32.1489
        0.399      32.1489
       0.3995      32.1489
          0.4      32.1489
       0.4005      32.1489
        0.401      32.1489
       0.4015      32.1489
        0.402      32.1489
       0.4025      32.1489
        0.403      32.1489
       0.4035      32.1489
        0.404      32.1489
       0.4045      32.1489
        0.405      32.1489
       0.4055      32.1489
        0.406      32.1489
       0.4065      32.1489
        0.407      32.1489
       0.4075      32.1489
        0.408      32.1489
       0.4085      32.1489
        0.409      32.1489
       0.4095      32.1489
         0.41      32.1489
       0.4105      32.1489
        0.411      32.1489
       0.4115      32.1489
        0.412      32.1489
       0.4125      32.1489
        0.413      32.1489
       0.4135      32.1489
        0.414      32.1489
       0.4145      32.1489
        0.415      32.1489
       0.4155      32.1489
        0.416      32.1489
       0.4165      32.1489
        0.417      32.1489
       0.4175      32.1489
        0.418      32.1489
       0.4185      32.1489
        0.419      32.1489
       0.4195      32.1489
         0.42      32.1489
       0.4205      32.1489
        0.421      32.1489
       0.4215      32.1489
        0.422      32.1489
       0.4225      32.1489
        0.423      32.1489
       0.4235      32.1489
        0.424      32.1489
       0.4245      32.1489
        0.425      32.1489
       0.4255      32.1489
        0.426      32.1489
       0.4265      32.1489
        0.427      32.1489
       0.4275      32.1489
        0.428      32.1489
       0.4285      32.1489
        0.429      32.1489
       0.4295      32.1489
         0.43      32.1489
       0.4305      32.1489
        0.431      32.1489
       0.4315      32.1489
        0.432      32.1489
       0.4325      32.1489
        0.433      32.1489
       0.4335      32.1489
        0.434      32.1489
       0.4345      32.1489
        0.435      32.1489
       0.4355      32.1489
        0.436      32.1489
       0.4365      32.1489
        0.437      32.1489
       0.4375      32.1489
        0.438      32.1489
       0.4385      32.1489
        0.439      32.1489
       0.4395      32.1489
         0.44      32.1489
       0.4405      32.1489
        0.441      32.1489
       0.4415      32.1489
        0.442      32.1489
       0.4425      32.1489
        0.443      32.1489
       0.4435      32.1489
        0.444      32.1489
       0.4445      32.1489
        0.445      32.1489
       0.4455      32.1489
        0.446      32.1489
       0.4465      32.1489
        0.447      32.1489
       0.4475      32.1489
        0.448      32.1489
       0.4485      32.1489
        0.449      32.1489
       0.4495      32.1489
         0.45      32.1489
       0.4505      32.1489
        0.451      32.1489
       0.4515      32.1489
        0.452      32.1489
       0.4525      32.1489
        0.453      32.1489
       0.4535      32.1489
        0.454      32.1489
       0.4545      32.1489
        0.455      32.1489
       0.4555      32.1489
        0.456      32.1489
       0.4565      32.1489
        0.457      32.1489
       0.4575      32.1489
        0.458      32.1489
       0.4585      32.1489
        0.459      32.1489
       0.4595      32.1489
         0.46      32.1489
       0.4605      32.1489
        0.461      32.1489
       0.4615      32.1489
        0.462      32.1489
       0.4625      32.1489
        0.463      32.1489
       0.4635      32.1489
        0.464      32.1489
       0.4645      32.1489
        0.465      32.1489
       0.4655      32.1489
        0.466      32.1489
       0.4665      32.1489
        0.467      32.1489
       0.4675      32.1489
        0.468      32.1489
       0.4685      32.1489
        0.469      32.1489
       0.4695      32.1489
         0.47      32.1489
       0.4705      32.1489
        0.471      32.1489
       0.4715      32.1489
        0.472      32.1489
       0.4725      32.1489
        0.473      32.1489
       0.4735      32.1489
        0.474      32.1489
       0.4745      32.1489
        0.475      32.1489
       0.4755      32.1489
        0.476      32.1489
       0.4765      32.1489
        0.477      32.1489
       0.4775      32.1489
        0.478      32.1489
       0.4785      32.1489
        0.479      32.1489
       0.4795      32.1489
         0.48      32.1489
       0.4805      32.1489
        0.481       32.149
       0.4815       32.149
        0.482       32.149
       0.4825       32.149
        0.483       32.149
       0.4835       32.149
        0.484       32.149
       0.4845       32.149
        0.485       32.149
       0.4855       32.149
        0.486       32.149
       0.4865       32.149
        0.487       32.149
       0.4875       32.149
        0.488       32.149
       0.4885       32.149
        0.489       32.149
       0.4895       32.149
         0.49       32.149
       0.4905       32.149
        0.491       32.149
       0.4915       32.149
        0.492       32.149
       0.4925       32.149
        0.493       32.149
       0.4935       32.149
        0.494       32.149
       0.4945       32.149
        0.495       32.149
       0.4955       32.149
        0.496       32.149
       0.4965       32.149
        0.497       32.149
       0.4975       32.149
        0.498       32.149
       0.4985       32.149
        0.499       32.149
       0.4995       32.149
          0.5       32.149
       0.5005       32.149
        0.501       32.149
       0.5015       32.149
        0.502       32.149
       0.5025       32.149
        0.503       32.149
       0.5035       32.149
        0.504       32.149
       0.5045       32.149
        0.505       32.149
       0.5055       32.149
        0.506       32.149
       0.5065       32.149
        0.507       32.149
       0.5075       32.149
        0.508       32.149
       0.5085       32.149
        0.509       32.149
       0.5095       32.149
         0.51       32.149
       0.5105       32.149
        0.511       32.149
       0.5115       32.149
        0.512       32.149
       0.5125       32.149
        0.513       32.149
       0.5135       32.149
        0.514       32.149
       0.5145       32.149
        0.515       32.149
       0.5155       32.149
        0.516       32.149
       0.5165       32.149
        0.517       32.149
       0.5175       32.149
        0.518       32.149
       0.5185       32.149
        0.519       32.149
       0.5195       32.149
         0.52       32.149
       0.5205       32.149
        0.521       32.149
       0.5215       32.149
        0.522       32.149
       0.5225       32.149
        0.523       32.149
       0.5235       32.149
        0.524       32.149
       0.5245       32.149
        0.525       32.149
       0.5255       32.149
        0.526       32.149
       0.5265       32.149
        0.527       32.149
       0.5275       32.149
        0.528       32.149
       0.5285       32.149
        0.529       32.149
       0.5295       32.149
         0.53       32.149
       0.5305       32.149
        0.531       32.149
       0.5315       32.149
        0.532       32.149
       0.5325       32.149
        0.533       32.149
       0.5335       32.149
        0.534       32.149
       0.5345       32.149
        0.535       32.149
       0.5355       32.149
        0.536       32.149
       0.5365       32.149
        0.537       32.149
       0.5375       32.149
        0.538       32.149
       0.5385       32.149
        0.539       32.149
       0.5395       32.149
         0.54       32.149
       0.5405       32.149
        0.541       32.149
       0.5415       32.149
        0.542       32.149
       0.5425       32.149
        0.543       32.149
       0.5435       32.149
        0.544       32.149
       0.5445       32.149
        0.545       32.149
       0.5455       32.149
        0.546       32.149
       0.5465       32.149
        0.547       32.149
       0.5475       32.149
        0.548       32.149
       0.5485       32.149
        0.549       32.149
       0.5495       32.149
         0.55       32.149
       0.5505       32.149
        0.551       32.149
       0.5515       32.149
        0.552       32.149
       0.5525       32.149
        0.553       32.149
       0.5535       32.149
        0.554       32.149
       0.5545       32.149